/*--------------------------------*- C++ -*----------------------------------*\
  =========                 |
  \\      /  F ield         | OpenFOAM: The Open Source CFD Toolbox
   \\    /   O peration     | Website:  https://openfoam.org
    \\  /    A nd           | Version:  6
     \\/     M anipulation  |
\*---------------------------------------------------------------------------*/
FoamFile
{
    version     2.0;
    format      ascii;
    class       volVectorField;
    location    "0";
    object      HanGaoBCFaceVector;
}
// * * * * * * * * * * * * * * * * * * * * * * * * * * * * * * * * * * * * * //

dimensions      [0 2 -2 0 0 0 0];

internalField   uniform (0 0 0);

boundaryField
{
    low
    {
        type            calculated;
        value           nonuniform List<vector> 
49
(
(0 -3.91049e-05 0)
(0 -3.91049e-05 0)
(0 -3.91049e-05 0)
(0 -3.91049e-05 0)
(0 -3.91049e-05 0)
(0 -3.91049e-05 0)
(0 -3.91049e-05 0)
(0 -3.91049e-05 0)
(0 -3.91049e-05 0)
(0 -3.91049e-05 0)
(0 -3.91049e-05 0)
(0 -3.91049e-05 0)
(0 -3.91049e-05 0)
(0 -3.91049e-05 0)
(0 -3.91049e-05 0)
(0 -3.91049e-05 0)
(0 -3.91049e-05 0)
(0 -3.91049e-05 0)
(0 -3.91049e-05 0)
(0 -3.91049e-05 0)
(0 -3.91049e-05 0)
(0 -3.91049e-05 0)
(0 -3.91049e-05 0)
(0 -3.91049e-05 0)
(0 -3.91049e-05 0)
(0 -3.91049e-05 0)
(0 -3.91049e-05 0)
(0 -3.91049e-05 0)
(0 -3.91049e-05 0)
(0 -3.91049e-05 0)
(0 -3.91049e-05 0)
(0 -3.91049e-05 0)
(0 -3.91049e-05 0)
(0 -3.91049e-05 0)
(0 -3.91049e-05 0)
(0 -3.91049e-05 0)
(0 -3.91049e-05 0)
(0 -3.91049e-05 0)
(0 -3.91049e-05 0)
(0 -3.91049e-05 0)
(0 -3.91049e-05 0)
(0 -3.91049e-05 0)
(0 -3.91049e-05 0)
(0 -3.91049e-05 0)
(0 -3.91049e-05 0)
(0 -3.91049e-05 0)
(0 -3.91049e-05 0)
(0 -3.91049e-05 0)
(0 -3.91049e-05 0)
)
;
    }
    left
    {
        type            calculated;
        value           nonuniform List<vector> 
77
(
(-4.96742e-05 -8.05173e-06 0)
(-5.00626e-05 -5.10796e-06 0)
(-5.02478e-05 -2.74099e-06 0)
(-5.03112e-05 -1.06669e-06 0)
(-5.03224e-05 -8.04736e-08 1.65436e-24)
(-5.03206e-05 4.36111e-07 0)
(-5.03222e-05 1.60289e-07 -3.30872e-24)
(-5.03225e-05 8.62262e-14 0)
(-5.03221e-05 -1.91917e-07 0)
(-5.03111e-05 -1.07045e-06 0)
(-5.03111e-05 -1.07045e-06 0)
(-5.03111e-05 -1.07045e-06 -2.64698e-23)
(-5.03008e-05 -1.47596e-06 0)
(-5.02707e-05 -2.28134e-06 0)
(-5.00668e-05 -5.06587e-06 0)
(-4.97468e-05 -7.59032e-06 0)
(-4.93764e-05 -9.71193e-06 2.11758e-22)
(-4.93858e-05 -9.66428e-06 0)
(-4.96215e-05 -8.36998e-06 2.11758e-22)
(-4.99523e-05 -6.09253e-06 -1.05879e-22)
(-5.02398e-05 -2.88339e-06 -5.29396e-23)
(-5.03055e-05 -1.30936e-06 0)
(-5.02863e-05 -1.90901e-06 0)
(-5.01237e-05 -4.46813e-06 1.05879e-22)
(-4.94817e-05 -9.1602e-06 2.11758e-22)
(-4.84123e-05 -1.37334e-05 -2.11758e-22)
(-4.71122e-05 -1.76859e-05 4.23516e-22)
(-4.55375e-05 -2.14171e-05 0)
(-4.4279e-05 -2.39106e-05 4.23516e-22)
(-4.32462e-05 -2.57317e-05 0)
(-4.20132e-05 -2.76992e-05 0)
(-4.09965e-05 -2.91829e-05 -4.23516e-22)
(-4.04588e-05 -2.99239e-05 0)
(-4.28736e-05 -3.30056e-05 0)
(-4.24557e-05 -3.35415e-05 8.47033e-22)
(-4.24396e-05 -3.35618e-05 0)
(-4.25487e-05 -3.34234e-05 -8.47033e-22)
(-4.29926e-05 -3.28505e-05 0)
(-4.38563e-05 -3.16883e-05 0)
(-4.48373e-05 -3.02841e-05 0)
(-4.60709e-05 -2.83719e-05 -4.23516e-22)
(-4.75765e-05 -2.57672e-05 0)
(-4.97198e-05 -2.13419e-05 0)
(-5.16136e-05 -1.62342e-05 0)
(-5.3215e-05 -9.77986e-06 2.11758e-22)
(-5.40707e-05 -1.9672e-06 0)
(-5.38117e-05 5.6404e-06 1.05879e-22)
(-5.28608e-05 1.15446e-05 0)
(-5.16041e-05 1.62641e-05 0)
(-5.02707e-05 2.00098e-05 -4.23516e-22)
(-4.91941e-05 2.25268e-05 0)
(-4.80095e-05 2.49518e-05 4.23516e-22)
(-4.75972e-05 2.57297e-05 0)
(-4.68818e-05 2.70114e-05 -4.23516e-22)
(-4.66251e-05 2.7452e-05 0)
(-4.64841e-05 2.76902e-05 0)
(-4.43499e-05 2.64189e-05 4.23516e-22)
(-4.45727e-05 2.60411e-05 0)
(-4.50188e-05 2.52622e-05 4.23516e-22)
(-4.50188e-05 2.52622e-05 0)
(-4.50878e-05 2.51388e-05 -4.23516e-22)
(-4.52427e-05 2.4859e-05 0)
(-4.52427e-05 2.4859e-05 0)
(-4.5044e-05 2.52173e-05 0)
(-4.47279e-05 2.57738e-05 0)
(-4.42529e-05 2.65811e-05 0)
(-4.37479e-05 2.74043e-05 0)
(-4.27918e-05 2.88743e-05 0)
(-4.21838e-05 2.97557e-05 0)
(-4.04934e-05 3.2018e-05 0)
(-3.99432e-05 3.27019e-05 -4.23516e-22)
(-3.76564e-05 3.5311e-05 0)
(-3.61368e-05 3.68646e-05 0)
(-3.464e-05 3.82745e-05 0)
(-3.17653e-05 4.0692e-05 0)
(-2.99896e-05 4.20178e-05 0)
(-2.85013e-05 4.30412e-05 4.23516e-22)
)
;
    }
    rifht
    {
        type            calculated;
        value           nonuniform List<vector> 
77
(
(4.04583e-05 2.58915e-06 0)
(4.05359e-05 6.47347e-07 1.32349e-23)
(4.05254e-05 -1.12638e-06 0)
(4.04489e-05 -2.73184e-06 0)
(4.03382e-05 -4.05e-06 0)
(4.01951e-05 -5.2844e-06 0)
(4.00801e-05 -6.09592e-06 0)
(3.9978e-05 -6.73283e-06 1.05879e-22)
(3.98973e-05 -7.19588e-06 -1.05879e-22)
(3.98466e-05 -7.47156e-06 -1.05879e-22)
(3.98577e-05 -7.41205e-06 0)
(3.99158e-05 -7.09232e-06 0)
(3.99591e-05 -6.84405e-06 1.05879e-22)
(4.00855e-05 -6.05997e-06 0)
(4.02422e-05 -4.91328e-06 0)
(4.03441e-05 -3.99066e-06 -5.29396e-23)
(4.04739e-05 -2.33189e-06 0)
(4.05325e-05 -8.32377e-07 0)
(4.05049e-05 1.70967e-06 0)
(4.03984e-05 3.39752e-06 0)
(4.02408e-05 4.92455e-06 0)
(4.01474e-05 5.63546e-06 -1.05879e-22)
(4.01416e-05 5.67688e-06 1.05879e-22)
(4.02294e-05 5.01693e-06 0)
(4.03737e-05 3.67986e-06 5.29396e-23)
(4.05087e-05 1.61777e-06 0)
(4.0522e-05 -1.2413e-06 0)
(4.02636e-05 -4.73481e-06 1.05879e-22)
(3.95453e-05 -8.92996e-06 -2.11758e-22)
(3.87283e-05 -1.19872e-05 0)
(3.79766e-05 -1.41898e-05 2.11758e-22)
(3.73246e-05 -1.58256e-05 2.11758e-22)
(3.71527e-05 -1.62251e-05 0)
(2.01896e-05 -8.84816e-06 -1.05879e-22)
(2.01876e-05 -8.85287e-06 1.05879e-22)
(2.01876e-05 -8.85287e-06 0)
(2.03765e-05 -8.40886e-06 5.29396e-23)
(2.05088e-05 -8.08075e-06 0)
(2.05768e-05 -7.90613e-06 0)
(2.08019e-05 -7.29318e-06 0)
(2.08019e-05 -7.29318e-06 0)
(2.10189e-05 -6.64199e-06 0)
(2.10434e-05 -6.56384e-06 0)
(2.11559e-05 -6.19184e-06 -5.29396e-23)
(2.12359e-05 -5.91152e-06 -5.29396e-23)
(2.128e-05 -5.75076e-06 0)
(2.1411e-05 -5.24206e-06 0)
(2.1411e-05 -5.24206e-06 -5.29396e-23)
(2.14877e-05 -4.91812e-06 0)
(2.16059e-05 -4.37001e-06 0)
(2.16059e-05 -4.37001e-06 -5.29396e-23)
(2.17043e-05 -3.85165e-06 0)
(2.17954e-05 -3.29728e-06 0)
(2.17954e-05 -3.29728e-06 -2.64698e-23)
(2.18965e-05 -2.54022e-06 0)
(2.19516e-05 -2.00901e-06 0)
(3.64466e-05 -2.83894e-06 0)
(3.65432e-05 -1.00576e-06 0)
(3.65493e-05 7.5057e-07 0)
(3.65003e-05 2.03424e-06 0)
(3.63152e-05 4.19797e-06 5.29396e-23)
(3.60175e-05 6.25696e-06 0)
(3.57748e-05 7.52126e-06 1.05879e-22)
(3.53218e-05 9.42247e-06 1.05879e-22)
(3.53668e-05 9.25282e-06 0)
(3.58031e-05 7.38607e-06 0)
(3.64283e-05 3.05528e-06 -5.29396e-23)
(3.63454e-05 -3.92721e-06 5.29396e-23)
(3.47928e-05 -1.12193e-05 2.11758e-22)
(3.29004e-05 -1.59384e-05 0)
(3.12595e-05 -1.8954e-05 0)
(3.02283e-05 -2.05586e-05 0)
(2.98332e-05 -2.1128e-05 -2.11758e-22)
(2.97784e-05 -2.12052e-05 -2.11758e-22)
(3.0437e-05 -2.02484e-05 2.11758e-22)
(3.2165e-05 -1.73729e-05 0)
(3.41119e-05 -1.3145e-05 0)
)
;
    }
    up
    {
        type            calculated;
        value           nonuniform List<vector> 
49
(
(1.32937e-05 4.57335e-05 2.11758e-22)
(1.32939e-05 4.57334e-05 0)
(1.32939e-05 4.57334e-05 0)
(1.3293e-05 4.57337e-05 -2.11758e-22)
(1.32915e-05 4.57341e-05 0)
(1.32915e-05 4.57341e-05 0)
(1.32915e-05 4.57341e-05 0)
(1.35457e-05 4.56595e-05 -2.11758e-22)
(1.3644e-05 4.56302e-05 0)
(1.3644e-05 4.56302e-05 2.11758e-22)
(1.36614e-05 4.5625e-05 0)
(1.41262e-05 4.54832e-05 0)
(1.42083e-05 4.54576e-05 0)
(1.45633e-05 4.53451e-05 0)
(1.47738e-05 4.5277e-05 2.11758e-22)
(1.51856e-05 4.51405e-05 2.11758e-22)
(1.51856e-05 4.51405e-05 0)
(1.59275e-05 4.48842e-05 4.23516e-22)
(1.60378e-05 4.48449e-05 0)
(1.64459e-05 4.46968e-05 -4.23516e-22)
(1.70436e-05 4.44723e-05 0)
(1.70436e-05 4.44723e-05 -4.23516e-22)
(1.81373e-05 4.40376e-05 0)
(1.82025e-05 4.40107e-05 4.23516e-22)
(1.88441e-05 4.37398e-05 4.23516e-22)
(1.95123e-05 4.34459e-05 0)
(1.95555e-05 4.34264e-05 -4.23516e-22)
(2.05864e-05 4.29473e-05 0)
(2.12123e-05 4.26416e-05 0)
(2.18296e-05 4.23289e-05 0)
(2.24668e-05 4.19942e-05 0)
(2.31233e-05 4.16364e-05 0)
(2.38437e-05 4.1228e-05 -4.23516e-22)
(2.46914e-05 4.0726e-05 0)
(2.55879e-05 4.01688e-05 -4.23516e-22)
(2.58925e-05 3.99731e-05 4.23516e-22)
(2.72041e-05 3.90923e-05 4.23516e-22)
(2.74644e-05 3.89099e-05 0)
(2.88029e-05 3.79298e-05 -4.23516e-22)
(2.92118e-05 3.76157e-05 -4.23516e-22)
(3.031e-05 3.67366e-05 0)
(3.09852e-05 3.61689e-05 4.23516e-22)
(3.18332e-05 3.54248e-05 0)
(3.27563e-05 3.4573e-05 0)
(3.33567e-05 3.39942e-05 0)
(3.42096e-05 3.31357e-05 -4.23516e-22)
(3.5101e-05 3.219e-05 0)
(3.58868e-05 3.13115e-05 4.23516e-22)
(3.66561e-05 3.04073e-05 0)
)
;
    }
    frontAndBackPlanes
    {
        type            empty;
    }
}


// ************************************************************************* //
