/*--------------------------------*- C++ -*----------------------------------*\
  =========                 |
  \\      /  F ield         | OpenFOAM: The Open Source CFD Toolbox
   \\    /   O peration     | Website:  https://openfoam.org
    \\  /    A nd           | Version:  6
     \\/     M anipulation  |
\*---------------------------------------------------------------------------*/
FoamFile
{
    version     2.0;
    format      ascii;
    class       volVectorField;
    object      U;
}
// * * * * * * * * * * * * * * * * * * * * * * * * * * * * * * * * * * * * * //

dimensions      [0 1 -1 0 0 0 0];

internalField   uniform (0 0 0);

boundaryField
{
    low
    {
        type            fixedValue;
        value           nonuniform List<vector> 
49
(
(0 0.04039990537276 0)
(0 0.11870056059975 0)
(0 0.19366963431900003 0)
(0 0.26530587755100005 0)
(0 0.333610229071 0)
(0 0.3985842399 0)
(0 0.46022472636399997 0)
(0 0.518533321116 0)
(0 0.573511330279 0)
(0 0.625156059975 0)
(0 0.673468897959 0)
(0 0.7184509054560001 0)
(0 0.7600998783840001 0)
(0 0.7984169596000001 0)
(0 0.833402965431 0)
(0 0.8650561815910001 0)
(0 0.8933775060390002 0)
(0 0.918367510204 0)
(0 0.9400249695960001 0)
(0 0.9583505372760002 0)
(0 0.9733445397750001 0)
(0 0.9850062423990001 0)
(0 0.9933360533110001 0)
(0 0.998334054144 0)
(0 1.0 0)
(0 0.9983337276 0)
(0 0.9933365431000002 0)
(0 0.9850059975000001 0)
(0 0.9733429071000002 0)
(0 0.9583513536000002 0)
(0 0.94002399 0)
(0 0.9183697959000002 0)
(0 0.8933781591000002 0)
(0 0.8650539775000001 0)
(0 0.8334054144000002 0)
(0 0.7984169596000003 0)
(0 0.7600959600000001 0)
(0 0.7184530279000002 0)
(0 0.6734677551000001 0)
(0 0.6251621824 0)
(0 0.5735126364 0)
(0 0.5185305456 0)
(0 0.46023060390000003 0)
(0 0.3985842399000004 0)
(0 0.3336053311000004 0)
(0 0.2653110204000004 0)
(0 0.19366783840000032 0)
(0 0.1186921116000003 0)
(0 0.0404034319000003 0)
)
;
    }

    rifht
    {
        type            noSlip;
    }

    up
    {
        type            zeroGradient;
    }

    left
    {
        type            noSlip;
    }

    frontAndBack
    {
        type            empty;
    }
}

// ************************************************************************* //
