/*--------------------------------*- C++ -*----------------------------------*\
  =========                 |
  \\      /  F ield         | OpenFOAM: The Open Source CFD Toolbox
   \\    /   O peration     | Website:  https://openfoam.org
    \\  /    A nd           | Version:  6
     \\/     M anipulation  |
\*---------------------------------------------------------------------------*/
FoamFile
{
    version     2.0;
    format      ascii;
    class       volScalarField;
    location    "3200";
    object      Cx;
}
// * * * * * * * * * * * * * * * * * * * * * * * * * * * * * * * * * * * * * //

dimensions      [0 1 0 0 0 0 0];

internalField   nonuniform List<scalar> 
126
(
0.0102618
0.00946385
0.00847311
0.00578655
0.0012093
-0.00879478
0.0326208
0.0321887
0.0317267
0.0294539
0.0252502
0.0167819
0.0549809
0.0549166
0.0549855
0.0531283
0.0493002
0.0423703
0.0773417
0.077647
0.0782486
0.0768085
0.0733576
0.0679683
0.099703
0.100379
0.101515
0.100493
0.0974202
0.093573
0.122065
0.123112
0.124782
0.124179
0.121485
0.119181
0.144426
0.145845
0.148049
0.147865
0.14555
0.144788
0.166787
0.168576
0.171314
0.171547
0.169609
0.17039
0.189146
0.191304
0.194573
0.195221
0.19366
0.195979
-0.0250568
-0.0407006
-0.0444607
-0.0342392
0.00326877
-0.00975336
-0.0124104
-0.00285834
0.0316067
0.0212082
0.0196535
0.0285346
0.0599441
0.0521539
0.0516831
0.0598735
0.0882624
0.0830405
0.0836104
0.0910671
0.116536
0.113805
0.115335
0.12198
0.14473
0.144359
0.146715
0.152428
0.172801
0.174586
0.177566
0.182166
0.200693
0.204346
0.207662
0.210903
-0.0199938
-0.00673631
0.00824597
0.0272869
0.0101039
0.0218689
0.0355844
0.0537359
0.0401951
0.0504344
0.0628521
0.0800827
0.0701967
0.0788586
0.0899293
0.106188
0.0999962
0.107006
0.116658
0.131871
0.129428
0.134679
0.142809
0.156868
0.158268
0.16161
0.168073
0.180829
0.186223
0.187455
0.192054
0.203302
0.212955
0.211811
0.2143
0.223779
)
;

boundaryField
{
    low
    {
        type            calculated;
        value           nonuniform List<scalar> 9(0.0111111 0.0333333 0.0555556 0.0777778 0.1 0.122222 0.144444 0.166667 0.188889);
    }
    left
    {
        type            calculated;
        value           nonuniform List<scalar> 
14
(
-0.000878446
-0.00185762
-0.00310973
-0.00600515
-0.0107664
-0.0214587
-0.0390053
-0.0560002
-0.0603413
-0.0497654
-0.0349685
-0.0209398
-0.00538308
0.0141123
)
;
    }
    rifht
    {
        type            calculated;
        value           nonuniform List<scalar> 
14
(
0.200377
0.202715
0.206246
0.20711
0.20573
0.208708
0.214921
0.219507
0.223075
0.225572
0.226314
0.223962
0.225202
0.233693
)
;
    }
    up
    {
        type            calculated;
        value           nonuniform List<scalar> 9(0.0380678 0.064031 0.0898812 0.11547 0.140604 0.165007 0.188303 0.210018 0.22961);
    }
    frontAndBackPlanes
    {
        type            empty;
    }
}


// ************************************************************************* //
