/*--------------------------------*- C++ -*----------------------------------*\
  =========                 |
  \\      /  F ield         | OpenFOAM: The Open Source CFD Toolbox
   \\    /   O peration     | Website:  https://openfoam.org
    \\  /    A nd           | Version:  6
     \\/     M anipulation  |
\*---------------------------------------------------------------------------*/
FoamFile
{
    version     2.0;
    format      ascii;
    class       volScalarField;
    location    "3200";
    object      Cy;
}
// * * * * * * * * * * * * * * * * * * * * * * * * * * * * * * * * * * * * * //

dimensions      [0 1 0 0 0 0 0];

internalField   nonuniform List<scalar> 
126
(
0.0142575
0.0427595
0.0712254
0.0995492
0.127685
0.153929
0.0139638
0.0418574
0.0697061
0.0974409
0.125028
0.150892
0.0136668
0.0409455
0.0681704
0.0953095
0.122341
0.147818
0.0133663
0.0400229
0.0666166
0.0931526
0.119621
0.144704
0.0130618
0.0390885
0.0650432
0.090968
0.116865
0.141546
0.0127531
0.0381414
0.0634484
0.0887533
0.11407
0.138339
0.0124396
0.0371804
0.0618304
0.086506
0.111233
0.135082
0.0121212
0.0362044
0.0601875
0.084224
0.108352
0.13177
0.0117973
0.0352125
0.0585181
0.0819048
0.105423
0.128399
0.178558
0.205163
0.234674
0.263909
0.174887
0.200278
0.228257
0.256016
0.171162
0.195319
0.221745
0.248005
0.167356
0.19021
0.215013
0.239702
0.163442
0.184874
0.207938
0.230939
0.15939
0.179231
0.200389
0.221538
0.155171
0.173204
0.192248
0.211341
0.150765
0.166734
0.183426
0.200236
0.146159
0.159796
0.173891
0.188189
0.289956
0.314505
0.338138
0.358479
0.281476
0.306106
0.329872
0.350588
0.272836
0.297487
0.321327
0.342361
0.263809
0.288364
0.312163
0.333403
0.254174
0.278463
0.302052
0.323327
0.243701
0.267494
0.290642
0.31172
0.232186
0.255199
0.27762
0.298212
0.219481
0.241391
0.262752
0.282521
0.205535
0.226005
0.245945
0.264526
)
;

boundaryField
{
    low
    {
        type            calculated;
        value           uniform 0;
    }
    left
    {
        type            calculated;
        value           nonuniform List<scalar> 
14
(
0.0143776
0.0431593
0.0719217
0.100578
0.128962
0.155236
0.180195
0.207448
0.237829
0.267858
0.294259
0.318785
0.342302
0.362471
)
;
    }
    rifht
    {
        type            calculated;
        value           nonuniform List<scalar> 
14
(
0.0116075
0.0346621
0.057616
0.080715
0.103901
0.12652
0.143641
0.156032
0.168758
0.181731
0.198213
0.217859
0.236916
0.254789
)
;
    }
    up
    {
        type            calculated;
        value           nonuniform List<scalar> 9(0.367603 0.359985 0.351998 0.343217 0.333229 0.321585 0.307884 0.291815 0.273235);
    }
    frontAndBackPlanes
    {
        type            empty;
    }
}


// ************************************************************************* //
