/*--------------------------------*- C++ -*----------------------------------*\
  =========                 |
  \\      /  F ield         | OpenFOAM: The Open Source CFD Toolbox
   \\    /   O peration     | Website:  https://openfoam.org
    \\  /    A nd           | Version:  6
     \\/     M anipulation  |
\*---------------------------------------------------------------------------*/
FoamFile
{
    version     2.0;
    format      ascii;
    class       volVectorField;
    location    "3200";
    object      div(U);
}
// * * * * * * * * * * * * * * * * * * * * * * * * * * * * * * * * * * * * * //

dimensions      [0 -1 -1 0 0 0 0];

internalField   nonuniform List<vector> 
126
(
(-283.888 -2101.89 -2.68105e-14)
(-117.534 -1579.79 5.88156e-15)
(135.018 -931.106 -7.80432e-16)
(179.282 -376.209 -2.13905e-15)
(204.806 -288.265 4.63297e-14)
(294.612 -19.8097 4.44007e-14)
(-494.582 -532.639 2.64504e-14)
(-440.676 -783.963 -1.10474e-16)
(-172.312 -683.954 -1.85323e-15)
(-25.6634 -454.219 1.22019e-14)
(37.7886 -363.833 -5.02578e-14)
(152.345 -196.681 -2.12006e-14)
(-157.137 15.6908 -1.54494e-14)
(-171.162 -162.976 6.25741e-15)
(-128.691 -305.258 3.95916e-15)
(-78.9433 -321.162 -1.04062e-14)
(-59.4281 -323.038 3.31499e-14)
(26.7844 -311.075 3.05724e-15)
(-13.9224 74.7855 1.16518e-14)
(-25.9588 38.0033 -2.36175e-14)
(-50.0861 -63.1315 9.17636e-15)
(-51.2178 -139.322 -4.9496e-15)
(-61.0806 -186.782 -1.20732e-14)
(-48.529 -262.758 1.01934e-14)
(-5.50635 67.2907 -3.44148e-15)
(3.77722 65.7616 1.53587e-14)
(-2.9003 10.2278 -9.17623e-15)
(-3.00436 -51.8385 6.87832e-15)
(-6.52946 -99.7822 -1.95725e-15)
(-31.5197 -167.565 -8.79646e-15)
(-2.98533 85.4529 1.34881e-17)
(26.7739 39.6764 1.63586e-15)
(32.7552 -51.6679 3.24428e-15)
(44.2216 -106.047 3.18334e-15)
(48.1826 -145.9 -5.0697e-15)
(8.1223 -164.554 1.48848e-14)
(137.818 70.778 4.35391e-15)
(145.171 -151.349 -1.86881e-14)
(95.5481 -274.811 5.91772e-15)
(97.3253 -292.931 5.23955e-16)
(91.4644 -320.578 1.05739e-14)
(8.93847 -276.131 -9.3001e-15)
(598.91 -470.296 3.1991e-15)
(395.58 -815.621 -8.41892e-16)
(153.523 -648.827 -5.30641e-15)
(103.896 -476.877 -2.06839e-14)
(91.3769 -517.302 9.77207e-15)
(-40.4466 -397.883 1.26752e-15)
(376.339 -2401.08 -2.02988e-14)
(-56.206 -1880.88 2.94254e-14)
(-227.29 -833.08 7.24196e-15)
(-46.8488 -411.729 2.74823e-15)
(-26.1188 -708.323 1.72313e-14)
(-255.616 -487.665 -1.57917e-14)
(153.995 286.217 -1.87705e-14)
(29.2561 268.215 -3.21552e-15)
(8.92551 171.881 1.07975e-14)
(-44.906 83.9273 -1.18772e-14)
(112.182 51.3606 2.85713e-14)
(53.3969 192.145 -1.26388e-14)
(66.2802 137.517 4.16263e-14)
(24.0683 35.1555 -5.56868e-14)
(78.2017 -170.774 -1.22909e-14)
(69.281 9.2051 4.37661e-15)
(74.3255 33.0056 -5.59841e-14)
(46.4544 -33.3379 4.18514e-14)
(9.42767 -242.781 -1.8377e-15)
(36.4788 -125.846 -7.79022e-15)
(28.9253 -89.5435 3.05973e-14)
(12.9189 -108.239 9.87273e-15)
(-14.3775 -206.769 -8.68486e-16)
(12.2257 -165.137 1.89622e-14)
(-7.70448 -149.135 -2.9239e-14)
(-22.246 -148.042 5.68259e-15)
(-0.767586 -187.82 -2.30009e-14)
(13.2062 -182.687 3.19359e-14)
(-11.6944 -180.156 -2.88661e-14)
(-28.1794 -167.224 1.59461e-14)
(-10.495 -241.066 -1.04991e-14)
(0.335029 -229.287 8.39404e-15)
(-22.4661 -216.456 4.15886e-15)
(-30.5517 -178.747 6.72651e-15)
(-70.1158 -245.199 2.36414e-15)
(-60.372 -178.513 5.04946e-15)
(-64.4919 -159.252 -2.26144e-14)
(-39.854 -121.773 1.63834e-14)
(-260.638 -13.8822 -1.3272e-14)
(-142.602 93.6541 2.03386e-14)
(-70.4445 54.9916 -6.79137e-15)
(-13.3519 22.6039 7.42664e-15)
(-98.5679 3.89601 1.01889e-13)
(-126.57 -77.2097 -1.19906e-13)
(-216.077 86.6 6.54135e-15)
(-678.631 -920.589 2.77023e-14)
(-36.0801 -19.4798 1.70785e-14)
(-83.6339 -59.4088 5.71376e-14)
(-48.1692 26.5996 -5.33181e-14)
(-303.778 -464.39 2.26888e-14)
(6.35818 -68.5938 -2.25228e-14)
(-17.1613 -72.0832 2.58208e-14)
(17.5543 -30.1831 -1.16778e-14)
(-134.138 -293.113 -2.13927e-16)
(-2.19254 -129.799 -1.01399e-14)
(0.63591 -114.623 -2.80328e-14)
(24.119 -114.634 3.00788e-14)
(-91.9599 -186.923 -1.60845e-14)
(-21.1963 -162.892 -1.06306e-15)
(-1.23719 -158.519 -1.1082e-14)
(-8.22664 -183.852 7.85314e-15)
(-76.7067 -94.8208 5.06492e-16)
(-19.8064 -169.853 -1.20524e-15)
(0.573336 -195.347 6.91587e-15)
(-49.8122 -216.446 -2.76881e-15)
(-57.0312 -0.861054 -1.0095e-15)
(-6.62062 -158.356 -1.54784e-14)
(4.98661 -233.094 1.02539e-14)
(-99.1704 -212.089 -1.69437e-15)
(-26.1152 102.578 5.72235e-15)
(16.3166 -97.7622 1.45167e-15)
(-4.48589 -291.177 -4.55491e-15)
(-178.082 -209.636 1.02673e-14)
(21.8629 210.688 -1.64128e-14)
(115.482 -30.3233 -3.16633e-15)
(-16.9111 -532.358 -1.11642e-15)
(-328.248 -381.091 3.02785e-16)
(111.413 320.924 3.92448e-15)
)
;

boundaryField
{
    low
    {
        type            extrapolatedCalculated;
        value           nonuniform List<vector> 9((-283.888 -2101.89 -2.68105e-14) (-494.582 -532.639 2.64504e-14) (-157.137 15.6908 -1.54494e-14) (-13.9224 74.7855 1.16518e-14) (-5.50635 67.2907 -3.44148e-15) (-2.98533 85.4529 1.34881e-17) (137.818 70.778 4.35391e-15) (598.91 -470.296 3.1991e-15) (376.339 -2401.08 -2.02988e-14));
    }
    left
    {
        type            extrapolatedCalculated;
        value           nonuniform List<vector> 
14
(
(-283.888 -2101.89 -2.68105e-14)
(-117.534 -1579.79 5.88156e-15)
(135.018 -931.106 -7.80432e-16)
(179.282 -376.209 -2.13905e-15)
(204.806 -288.265 4.63297e-14)
(294.612 -19.8097 4.44007e-14)
(153.995 286.217 -1.87705e-14)
(29.2561 268.215 -3.21552e-15)
(8.92551 171.881 1.07975e-14)
(-44.906 83.9273 -1.18772e-14)
(-98.5679 3.89601 1.01889e-13)
(-126.57 -77.2097 -1.19906e-13)
(-216.077 86.6 6.54135e-15)
(-678.631 -920.589 2.77023e-14)
)
;
    }
    rifht
    {
        type            extrapolatedCalculated;
        value           nonuniform List<vector> 
14
(
(376.339 -2401.08 -2.02988e-14)
(-56.206 -1880.88 2.94254e-14)
(-227.29 -833.08 7.24196e-15)
(-46.8488 -411.729 2.74823e-15)
(-26.1188 -708.323 1.72313e-14)
(-255.616 -487.665 -1.57917e-14)
(-260.638 -13.8822 -1.3272e-14)
(-142.602 93.6541 2.03386e-14)
(-70.4445 54.9916 -6.79137e-15)
(-13.3519 22.6039 7.42664e-15)
(115.482 -30.3233 -3.16633e-15)
(-16.9111 -532.358 -1.11642e-15)
(-328.248 -381.091 3.02785e-16)
(111.413 320.924 3.92448e-15)
)
;
    }
    up
    {
        type            extrapolatedCalculated;
        value           nonuniform List<vector> 9((-678.631 -920.589 2.77023e-14) (-303.778 -464.39 2.26888e-14) (-134.138 -293.113 -2.13927e-16) (-91.9599 -186.923 -1.60845e-14) (-76.7067 -94.8208 5.06492e-16) (-57.0312 -0.861054 -1.0095e-15) (-26.1152 102.578 5.72235e-15) (21.8629 210.688 -1.64128e-14) (111.413 320.924 3.92448e-15));
    }
    frontAndBackPlanes
    {
        type            empty;
    }
}


// ************************************************************************* //
