/*--------------------------------*- C++ -*----------------------------------*\
  =========                 |
  \\      /  F ield         | OpenFOAM: The Open Source CFD Toolbox
   \\    /   O peration     | Website:  https://openfoam.org
    \\  /    A nd           | Version:  6
     \\/     M anipulation  |
\*---------------------------------------------------------------------------*/
FoamFile
{
    version     2.0;
    format      ascii;
    class       volTensorField;
    location    "3200";
    object      Omega;
}
// * * * * * * * * * * * * * * * * * * * * * * * * * * * * * * * * * * * * * //

dimensions      [0 0 -1 0 0 0 0];

internalField   nonuniform List<tensor> 
126
(
(0 18.7393 7.28876e-18 -18.7393 0 1.36706e-16 -7.28876e-18 -1.36706e-16 0)
(0 18.7488 -2.02081e-17 -18.7488 0 -5.82585e-17 2.02081e-17 5.82585e-17 0)
(0 16.7768 5.94853e-18 -16.7768 0 1.36952e-16 -5.94853e-18 -1.36952e-16 0)
(0 13.9296 -2.41054e-17 -13.9296 0 -1.54827e-18 2.41054e-17 1.54827e-18 0)
(0 11.8215 2.24331e-17 -11.8215 0 -3.71763e-16 -2.24331e-17 3.71763e-16 0)
(0 8.36896 4.07564e-17 -8.36896 0 -3.96388e-16 -4.07564e-17 3.96388e-16 0)
(0 0.1233 -3.20688e-17 -0.1233 0 -1.9622e-16 3.20688e-17 1.9622e-16 0)
(0 5.35189 -1.30692e-17 -5.35189 0 -8.8235e-17 1.30692e-17 8.8235e-17 0)
(0 8.04456 -5.80105e-18 -8.04456 0 -3.13919e-17 5.80105e-18 3.13919e-17 0)
(0 8.99551 1.89097e-17 -8.99551 0 -5.62453e-17 -1.89097e-17 5.62453e-17 0)
(0 8.88392 1.75225e-17 -8.88392 0 9.54302e-16 -1.75225e-17 -9.54302e-16 0)
(0 8.18783 -1.75713e-17 -8.18783 0 2.57324e-16 1.75713e-17 -2.57324e-16 0)
(0 -2.18664 3.12054e-17 2.18664 0 1.18838e-16 -3.12054e-17 -1.18838e-16 0)
(0 -0.0261631 4.06298e-17 0.0261631 0 -5.5025e-17 -4.06298e-17 5.5025e-17 0)
(0 2.2409 -1.6426e-17 -2.2409 0 -1.08132e-16 1.6426e-17 1.08132e-16 0)
(0 3.99842 2.30585e-17 -3.99842 0 1.34712e-16 -2.30585e-17 -1.34712e-16 0)
(0 5.13919 -6.53082e-17 -5.13919 0 -6.91547e-16 6.53082e-17 6.91547e-16 0)
(0 6.04345 -2.65554e-17 -6.04345 0 3.81179e-17 2.65554e-17 -3.81179e-17 0)
(0 -1.17025 -1.5308e-17 1.17025 0 -5.64894e-17 1.5308e-17 5.64894e-17 0)
(0 -0.780155 1.19068e-17 0.780155 0 3.14242e-16 -1.19068e-17 -3.14242e-16 0)
(0 0.0550458 7.4254e-18 -0.0550458 0 -1.43553e-16 -7.4254e-18 1.43553e-16 0)
(0 1.04085 -3.37938e-18 -1.04085 0 1.82505e-16 3.37938e-18 -1.82505e-16 0)
(0 1.98829 5.09217e-17 -1.98829 0 3.26478e-16 -5.09217e-17 -3.26478e-16 0)
(0 3.07306 -5.14651e-18 -3.07306 0 -3.71957e-16 5.14651e-18 3.71957e-16 0)
(0 -0.210214 7.54792e-18 0.210214 0 -1.27607e-17 -7.54792e-18 1.27607e-17 0)
(0 -0.223322 -3.65617e-17 0.223322 0 -1.52175e-16 3.65617e-17 1.52175e-16 0)
(0 -0.186977 1.02214e-18 0.186977 0 8.84024e-17 -1.02214e-18 -8.84024e-17 0)
(0 -0.0767682 -2.284e-17 0.0767682 0 -1.77069e-16 2.284e-17 1.77069e-16 0)
(0 0.153462 -6.08944e-18 -0.153462 0 1.92663e-16 6.08944e-18 -1.92663e-16 0)
(0 0.580809 1.10676e-17 -0.580809 0 3.73316e-16 -1.10676e-17 -3.73316e-16 0)
(0 0.748734 0 -0.748734 0 0 0 0 0)
(0 0.397275 4.3542e-17 -0.397275 0 -9.6075e-18 -4.3542e-17 9.6075e-18 0)
(0 -0.307729 -6.61342e-18 0.307729 0 -9.32866e-17 6.61342e-18 9.32866e-17 0)
(0 -0.931137 1.46009e-17 0.931137 0 -1.65852e-16 -1.46009e-17 1.65852e-16 0)
(0 -1.27236 -2.61256e-17 1.27236 0 -5.56747e-18 2.61256e-17 5.56747e-18 0)
(0 -1.48964 -8.1453e-18 1.48964 0 -3.59194e-16 8.1453e-18 3.59194e-16 0)
(0 1.99928 7.59285e-19 -1.99928 0 2.7052e-17 -7.59285e-19 -2.7052e-17 0)
(0 0.00912622 -3.60758e-17 -0.00912622 0 3.3503e-16 3.60758e-17 -3.3503e-16 0)
(0 -2.11452 1.81663e-17 2.11452 0 -1.66478e-17 -1.81663e-17 1.66478e-17 0)
(0 -3.38094 4.03149e-17 3.38094 0 -8.5399e-18 -4.03149e-17 8.5399e-18 0)
(0 -3.87989 -1.04579e-17 3.87989 0 -4.98818e-16 1.04579e-17 4.98818e-16 0)
(0 -4.28322 1.40855e-17 4.28322 0 3.84355e-16 -1.40855e-17 -3.84355e-16 0)
(0 0.638273 1.44513e-17 -0.638273 0 3.06413e-18 -1.44513e-17 -3.06413e-18 0)
(0 -4.70959 -5.01827e-17 4.70959 0 -4.73828e-17 5.01827e-17 4.73828e-17 0)
(0 -7.55787 -2.45521e-17 7.55787 0 1.90174e-16 2.45521e-17 -1.90174e-16 0)
(0 -8.46056 -2.48631e-17 8.46056 0 3.64995e-16 2.48631e-17 -3.64995e-16 0)
(0 -8.52709 5.71555e-18 8.52709 0 -2.60264e-16 -5.71555e-18 2.60264e-16 0)
(0 -8.40376 8.04171e-18 8.40376 0 1.52961e-17 -8.04171e-18 -1.52961e-17 0)
(0 -19.4766 -1.52926e-17 19.4766 0 -1.84489e-17 1.52926e-17 1.84489e-17 0)
(0 -19.124 5.77267e-17 19.124 0 -3.1795e-16 -5.77267e-17 3.1795e-16 0)
(0 -15.7744 2.03338e-18 15.7744 0 9.92534e-17 -2.03338e-18 -9.92534e-17 0)
(0 -14.15 -1.98923e-17 14.15 0 -4.88693e-17 1.98923e-17 4.88693e-17 0)
(0 -15.3147 2.85645e-17 15.3147 0 -1.36833e-16 -2.85645e-17 1.36833e-16 0)
(0 -13.6211 -2.07667e-18 13.6211 0 1.64591e-16 2.07667e-18 -1.64591e-16 0)
(0 4.07079 -4.11e-17 -4.07079 0 2.27071e-16 4.11e-17 -2.27071e-16 0)
(0 1.63838 -1.88164e-17 -1.63838 0 -2.85343e-17 1.88164e-17 2.85343e-17 0)
(0 1.29927 -7.05017e-17 -1.29927 0 1.43686e-17 7.05017e-17 -1.43686e-17 0)
(0 2.41634 4.587e-17 -2.41634 0 -6.78433e-17 -4.587e-17 6.78433e-17 0)
(0 6.53176 5.03961e-17 -6.53176 0 -1.08489e-16 -5.03961e-17 1.08489e-16 0)
(0 4.70537 2.09739e-17 -4.70537 0 -2.0666e-16 -2.09739e-17 2.0666e-16 0)
(0 3.62 1.35481e-16 -3.62 0 -1.17131e-16 -1.35481e-16 1.17131e-16 0)
(0 3.52947 -4.5955e-18 -3.52947 0 2.81407e-16 4.5955e-18 -2.81407e-16 0)
(0 6.24142 7.14247e-19 -6.24142 0 4.49519e-16 -7.14247e-19 -4.49519e-16 0)
(0 5.73441 -1.72154e-17 -5.73441 0 1.26218e-16 1.72154e-17 -1.26218e-16 0)
(0 4.74991 -2.71594e-19 -4.74991 0 6.64197e-16 2.71594e-19 -6.64197e-16 0)
(0 3.98139 -9.9289e-17 -3.98139 0 -5.1005e-16 9.9289e-17 5.1005e-16 0)
(0 4.00542 -1.55941e-17 -4.00542 0 4.18748e-18 1.55941e-17 -4.18748e-18 0)
(0 4.407 -4.37128e-17 -4.407 0 -5.77908e-17 4.37128e-17 5.77908e-17 0)
(0 3.9917 -6.03596e-17 -3.9917 0 -7.5469e-16 6.03596e-17 7.5469e-16 0)
(0 3.19925 -2.20574e-17 -3.19925 0 -7.76493e-16 2.20574e-17 7.76493e-16 0)
(0 1.31009 9.73378e-18 -1.31009 0 -2.94069e-17 -9.73378e-18 2.94069e-17 0)
(0 1.86505 -4.47956e-17 -1.86505 0 -5.7293e-16 4.47956e-17 5.7293e-16 0)
(0 1.78513 1.27437e-16 -1.78513 0 1.24048e-15 -1.27437e-16 -1.24048e-15 0)
(0 1.20887 1.05788e-17 -1.20887 0 -4.04057e-17 -1.05788e-17 4.04057e-17 0)
(0 -1.25597 4.50142e-17 1.25597 0 8.10525e-16 -4.50142e-17 -8.10525e-16 0)
(0 -0.950674 -6.98958e-17 0.950674 0 -1.47196e-15 6.98958e-17 1.47196e-15 0)
(0 -1.00441 1.0762e-16 1.00441 0 1.7937e-15 -1.0762e-16 -1.7937e-15 0)
(0 -1.44221 -6.65392e-17 1.44221 0 -6.81632e-16 6.65392e-17 6.81632e-16 0)
(0 -4.30278 2.45784e-17 4.30278 0 7.46648e-16 -2.45784e-17 -7.46648e-16 0)
(0 -4.17024 -1.29314e-17 4.17024 0 -6.44581e-16 1.29314e-17 6.44581e-16 0)
(0 -4.14569 -4.19231e-17 4.14569 0 -3.10502e-16 4.19231e-17 3.10502e-16 0)
(0 -4.37555 -5.67155e-17 4.37555 0 -6.01761e-16 5.67155e-17 6.01761e-16 0)
(0 -8.03845 -1.21617e-18 8.03845 0 4.7849e-17 1.21617e-18 -4.7849e-17 0)
(0 -7.55845 7.90593e-18 7.55845 0 2.82426e-17 -7.90593e-18 -2.82426e-17 0)
(0 -7.07579 1.11984e-16 7.07579 0 9.11987e-16 -1.11984e-16 -9.11987e-16 0)
(0 -6.89645 -1.06735e-16 6.89645 0 -8.47919e-16 1.06735e-16 8.47919e-16 0)
(0 -10.4626 4.37868e-17 10.4626 0 2.16426e-16 -4.37868e-17 -2.16426e-16 0)
(0 -8.65733 -4.9056e-17 8.65733 0 -2.54813e-16 4.9056e-17 2.54813e-16 0)
(0 -7.70644 -1.47621e-17 7.70644 0 1.26698e-17 1.47621e-17 -1.26698e-17 0)
(0 -7.31899 -7.12487e-18 7.31899 0 -1.9022e-16 7.12487e-18 1.9022e-16 0)
(0 4.03642 -2.0843e-16 -4.03642 0 3.8751e-17 2.0843e-16 -3.8751e-17 0)
(0 5.31624 2.36631e-16 -5.31624 0 5.27158e-16 -2.36631e-16 -5.27158e-16 0)
(0 6.67779 9.6557e-17 -6.67779 0 -7.35923e-17 -9.6557e-17 7.35923e-17 0)
(0 12.2615 1.20635e-16 -12.2615 0 4.89237e-16 -1.20635e-16 -4.89237e-16 0)
(0 3.90771 2.78576e-17 -3.90771 0 -4.98242e-16 -2.78576e-17 4.98242e-16 0)
(0 4.46356 -2.93207e-16 -4.46356 0 -3.12752e-16 2.93207e-16 3.12752e-16 0)
(0 5.17391 2.87517e-16 -5.17391 0 9.50132e-16 -2.87517e-16 -9.50132e-16 0)
(0 4.81145 -2.91657e-16 -4.81145 0 -7.55639e-16 2.91657e-16 7.55639e-16 0)
(0 3.63232 7.1107e-17 -3.63232 0 -3.02291e-17 -7.1107e-17 3.02291e-17 0)
(0 3.58217 -1.45944e-16 -3.58217 0 -1.17112e-15 1.45944e-16 1.17112e-15 0)
(0 3.40632 4.2219e-17 -3.40632 0 6.33591e-16 -4.2219e-17 -6.33591e-16 0)
(0 2.08027 -1.08867e-16 -2.08027 0 -5.58877e-16 1.08867e-16 5.58877e-16 0)
(0 2.60739 5.83835e-17 -2.60739 0 4.41937e-16 -5.83835e-17 -4.41937e-16 0)
(0 2.3077 3.14469e-16 -2.3077 0 1.29387e-15 -3.14469e-16 -1.29387e-15 0)
(0 1.67893 -4.68113e-16 -1.67893 0 -2.01438e-15 4.68113e-16 2.01438e-15 0)
(0 0.389609 1.48138e-16 -0.389609 0 5.95984e-16 -1.48138e-16 -5.95984e-16 0)
(0 0.652938 5.04505e-17 -0.652938 0 5.06874e-16 -5.04505e-17 -5.06874e-16 0)
(0 0.352046 2.38338e-16 -0.352046 0 1.64465e-15 -2.38338e-16 -1.64465e-15 0)
(0 -0.331072 -1.83066e-16 0.331072 0 -1.14066e-15 1.83066e-16 1.14066e-15 0)
(0 -1.26051 -2.91862e-16 1.26051 0 -1.14591e-15 2.91862e-16 1.14591e-15 0)
(0 -1.9216 3.71319e-18 1.9216 0 7.48736e-18 -3.71319e-18 -7.48736e-18 0)
(0 -2.15273 -1.31237e-16 2.15273 0 -5.84819e-16 1.31237e-16 5.84819e-16 0)
(0 -2.58697 -2.05201e-16 2.58697 0 -1.02504e-15 2.05201e-16 1.02504e-15 0)
(0 -2.94749 -3.07183e-18 2.94749 0 5.68246e-18 3.07183e-18 -5.68246e-18 0)
(0 -4.75095 1.7198e-16 4.75095 0 1.20891e-15 -1.7198e-16 -1.20891e-15 0)
(0 -4.96626 -1.61275e-16 4.96626 0 -1.10013e-15 1.61275e-16 1.10013e-15 0)
(0 -4.83377 5.49907e-16 4.83377 0 2.46607e-15 -5.49907e-16 -2.46607e-15 0)
(0 -4.53966 -1.2201e-17 4.53966 0 -2.25219e-16 1.2201e-17 2.25219e-16 0)
(0 -7.22789 -3.71974e-17 7.22789 0 -2.10159e-16 3.71974e-17 2.10159e-16 0)
(0 -7.95082 -1.78408e-16 7.95082 0 -9.31118e-16 1.78408e-16 9.31118e-16 0)
(0 -6.998 2.59582e-16 6.998 0 1.0881e-15 -2.59582e-16 -1.0881e-15 0)
(0 -6.04707 -3.63242e-16 6.04707 0 -1.52833e-15 3.63242e-16 1.52833e-15 0)
(0 -7.90804 9.96064e-18 7.90804 0 9.93632e-18 -9.96064e-18 -9.93632e-18 0)
(0 -11.2677 8.88313e-17 11.2677 0 4.11761e-16 -8.88313e-17 -4.11761e-16 0)
(0 -10.6243 -7.51343e-17 10.6243 0 -4.0668e-16 7.51343e-17 4.0668e-16 0)
(0 -8.01914 -2.24081e-17 8.01914 0 1.83984e-17 2.24081e-17 -1.83984e-17 0)
)
;

boundaryField
{
    low
    {
        type            calculated;
        value           nonuniform List<tensor> 9((0 17.7076 7.28876e-18 -17.7076 0 1.97765e-16 -7.28876e-18 -1.97765e-16 0) (0 -1.77835 -3.20688e-17 1.77835 0 -2.60277e-16 3.20688e-17 2.60277e-16 0) (0 -3.24282 3.12054e-17 3.24282 0 1.4946e-16 -3.12054e-17 -1.4946e-16 0) (0 -1.52346 -1.5308e-17 1.52346 0 -1.01556e-16 1.5308e-17 1.01556e-16 0) (0 -0.277826 7.54792e-18 0.277826 0 0 -7.54792e-18 0 0) (0 0.943469 0 -0.943469 0 0 0 0 0) (0 2.94373 7.59285e-19 -2.94373 0 0 -7.59285e-19 0 0) (0 2.90395 1.44513e-17 -2.90395 0 0 -1.44513e-17 0 0) (0 -17.947 -1.52926e-17 17.947 0 5.49177e-17 1.52926e-17 -5.49177e-17 0));
    }
    left
    {
        type            calculated;
        value           nonuniform List<tensor> 
14
(
(0 33.096 1.07542e-16 -33.096 0 1.42832e-16 -1.07542e-16 -1.42832e-16 0)
(0 27.8527 -3.07955e-17 -27.8527 0 -5.83325e-17 3.07955e-17 5.83325e-17 0)
(0 22.5635 -4.55636e-18 -22.5635 0 2.07433e-16 4.55636e-18 -2.07433e-16 0)
(0 16.9068 -4.2885e-17 -16.9068 0 3.30098e-17 4.2885e-17 -3.30098e-17 0)
(0 13.9447 -2.22121e-16 -13.9447 0 -3.70795e-16 2.22121e-16 3.70795e-16 0)
(0 9.69288 -2.2774e-16 -9.69288 0 -4.88561e-16 2.2774e-16 4.88561e-16 0)
(0 3.29243 -2.75125e-17 -3.29243 0 2.37576e-16 2.75125e-17 -2.37576e-16 0)
(0 -0.147442 -1.72472e-17 0.147442 0 -1.15038e-16 1.72472e-17 1.15038e-16 0)
(0 -0.146611 -9.54741e-17 0.146611 0 1.87395e-17 9.54741e-17 -1.87395e-17 0)
(0 1.8623 -8.49896e-18 -1.8623 0 -6.5612e-17 8.49896e-18 6.5612e-17 0)
(0 4.11908 -4.64084e-16 -4.11908 0 1.8468e-16 4.64084e-16 -1.8468e-16 0)
(0 5.78094 6.51562e-16 -5.78094 0 2.89318e-16 -6.51562e-16 -2.89318e-16 0)
(0 8.14159 6.43373e-17 -8.14159 0 -4.91819e-17 -6.43373e-17 4.91819e-17 0)
(0 19.187 2.60172e-16 -19.187 0 8.67819e-16 -2.60172e-16 -8.67819e-16 0)
)
;
    }
    rifht
    {
        type            calculated;
        value           nonuniform List<tensor> 
14
(
(0 -35.8658 -5.57231e-17 35.8658 0 -7.96041e-17 5.57231e-17 7.96041e-17 0)
(0 -30.1005 1.57327e-16 30.1005 0 -3.3501e-16 -1.57327e-16 3.3501e-16 0)
(0 -21.137 6.97896e-17 21.137 0 1.72478e-16 -6.97896e-17 -1.72478e-16 0)
(0 -17.2419 2.19758e-17 17.2419 0 -4.63175e-17 -2.19758e-17 4.63175e-17 0)
(0 -19.6467 6.87487e-17 19.6467 0 -1.34498e-16 -6.87487e-17 1.34498e-16 0)
(0 -17.2772 -8.07884e-17 17.2772 0 7.32811e-17 8.07884e-17 -7.32811e-17 0)
(0 -12.2375 9.21193e-18 12.2375 0 2.30958e-16 -9.21193e-18 -2.30958e-16 0)
(0 -8.90429 -1.10862e-17 8.90429 0 -2.63551e-16 1.10862e-17 2.63551e-16 0)
(0 -7.39349 2.07122e-18 7.39349 0 8.62947e-18 -2.07122e-18 -8.62947e-18 0)
(0 -6.93088 -2.44508e-18 6.93088 0 -1.93527e-16 2.44508e-18 1.93527e-16 0)
(0 -8.58093 1.87064e-18 8.58093 0 1.12611e-17 -1.87064e-18 -1.12611e-17 0)
(0 -15.1207 8.95449e-17 15.1207 0 4.11918e-16 -8.95449e-17 -4.11918e-16 0)
(0 -13.5459 -7.60489e-17 13.5459 0 -4.06349e-16 7.60489e-17 4.06349e-16 0)
(0 -9.15238 2.1857e-18 9.15238 0 3.64308e-18 -2.1857e-18 -3.64308e-18 0)
)
;
    }
    up
    {
        type            calculated;
        value           nonuniform List<tensor> 9((0 11.5376 1.25346e-16 -11.5376 0 5.05447e-16 -1.25346e-16 -5.05447e-16 0) (0 5.55716 -2.58414e-16 -5.55716 0 -6.43399e-16 2.58414e-16 6.43399e-16 0) (0 2.90309 -9.35114e-17 -2.90309 0 -5.11171e-16 9.35114e-17 5.11171e-16 0) (0 1.01706 1.50046e-16 -1.01706 0 5.53302e-16 -1.50046e-16 -5.53302e-16 0) (0 -0.768004 -2.72848e-16 0.768004 0 -1.16691e-15 2.72848e-16 1.16691e-15 0) (0 -2.47341 -4.74687e-18 2.47341 0 2.49285e-18 4.74687e-18 -2.49285e-18 0) (0 -3.94382 -1.09558e-17 3.94382 0 -2.23317e-16 1.09558e-17 2.23317e-16 0) (0 -5.13136 -3.90338e-16 5.13136 0 -1.56087e-15 3.90338e-16 1.56087e-15 0) (0 -6.35037 -1.95287e-17 6.35037 0 2.10675e-17 1.95287e-17 -2.10675e-17 0));
    }
    frontAndBackPlanes
    {
        type            empty;
    }
}


// ************************************************************************* //
