/*--------------------------------*- C++ -*----------------------------------*\
  =========                 |
  \\      /  F ield         | OpenFOAM: The Open Source CFD Toolbox
   \\    /   O peration     | Website:  https://openfoam.org
    \\  /    A nd           | Version:  6
     \\/     M anipulation  |
\*---------------------------------------------------------------------------*/
FoamFile
{
    version     2.0;
    format      ascii;
    class       surfaceScalarField;
    location    "3200";
    object      phi;
}
// * * * * * * * * * * * * * * * * * * * * * * * * * * * * * * * * * * * * * //

dimensions      [0 3 -1 0 0 0 0];

internalField   nonuniform List<scalar> 
229
(
4.26041e-05
2.04151e-06
4.68763e-05
-4.27217e-06
4.54586e-05
1.41771e-06
4.11425e-05
4.31611e-06
3.40624e-05
7.08005e-06
1.78135e-05
1.62489e-05
0.000115356
4.8649e-06
0.000119052
-7.96761e-06
0.00011799
2.47953e-06
0.000110471
1.18346e-05
9.84382e-05
1.91132e-05
3.78604e-05
7.83914e-05
0.000169461
6.10849e-06
0.000172407
-1.09139e-05
0.00017236
2.52647e-06
0.000164921
1.92735e-05
0.000154478
2.95567e-05
4.76251e-05
0.000144713
0.00020258
5.74759e-06
0.000205084
-1.34183e-05
0.000206271
1.33956e-06
0.000201019
2.4525e-05
0.000195032
3.55442e-05
4.44534e-05
0.000198204
0.000214082
4.38911e-06
0.00021561
-1.49457e-05
0.000217556
-6.06471e-07
0.000215576
2.65047e-05
0.000214682
3.6438e-05
3.12054e-05
0.00022793
0.00020379
2.81798e-06
0.000203404
-1.45598e-05
0.000205157
-2.35944e-06
0.000206938
2.47238e-05
0.000210885
3.24906e-05
1.36449e-05
0.000228446
0.000171737
1.78632e-06
0.000168644
-1.14669e-05
0.000169296
-3.01197e-06
0.0001751
1.89201e-05
0.000183355
2.42357e-05
-1.39147e-06
0.000198391
0.000118524
1.44151e-06
0.000112815
-5.75787e-06
0.000111887
-2.08473e-06
0.000121477
9.33024e-06
0.000133447
1.22655e-05
-7.02292e-06
0.000139079
4.60868e-05
4.03289e-05
3.82442e-05
4.75744e-05
5.98399e-05
5.2817e-05
3.22306e-06
1.30258e-05
6.93112e-07
2.52994e-06
7.67837e-06
-6.98526e-06
-1.25925e-05
2.02708e-05
5.40269e-05
3.73904e-05
4.19379e-05
1.46189e-05
5.4221e-05
-1.92683e-05
-3.41456e-05
7.5774e-05
0.000126397
5.57058e-05
0.000112323
2.86935e-05
0.000121213
-2.81581e-05
-5.12287e-05
0.000138296
0.000195152
5.87572e-05
0.000188407
3.54391e-05
0.000191075
-3.08266e-05
-5.6765e-05
0.000196611
0.000239887
4.68003e-05
0.000244072
3.12544e-05
0.000241355
-2.81099e-05
-5.02629e-05
0.000234853
0.000248704
2.65418e-05
0.00026071
1.92488e-05
0.000254214
-2.16138e-05
-3.55125e-05
0.000239464
0.00021756
7.37269e-06
0.000230395
6.41441e-06
0.000221761
-1.298e-05
-1.83813e-05
0.00020463
0.000148512
-2.06005e-06
0.000155244
-3.17496e-07
0.000146715
-4.45134e-06
-5.04062e-06
0.000133374
5.07569e-05
5.04394e-05
4.59881e-05
4.09474e-05
2.93073e-05
-9.03646e-06
3.43501e-05
-5.04282e-06
4.62835e-05
-1.19334e-05
-4.20971e-05
9.11476e-05
-2.44101e-05
0.000100961
-1.48562e-05
0.000122585
-3.35575e-05
-7.17387e-05
0.000149528
-3.5642e-05
0.000155035
-2.03638e-05
0.000171599
-5.01216e-05
-8.57682e-05
0.000197701
-3.67321e-05
0.000194056
-1.67187e-05
0.000200509
-5.65746e-05
-8.68936e-05
0.000225979
-2.78579e-05
0.000214227
-4.96663e-06
0.00021007
-5.24179e-05
-7.72289e-05
0.0002255
-1.3894e-05
0.000211033
9.50007e-06
0.000198835
-4.02199e-05
-6.00164e-05
0.000192562
-1.82642e-06
0.000182845
1.92171e-05
0.000166887
-2.42614e-05
-3.91716e-05
0.000129157
2.39063e-06
0.000131985
1.63889e-05
0.000116837
-9.11323e-06
-1.79136e-05
4.33381e-05
5.97269e-05
5.06137e-05
)
;

boundaryField
{
    low
    {
        type            calculated;
        value           nonuniform List<scalar> 9(-4.46456e-05 -0.00011818 -0.000170704 -0.000202219 -0.000212724 -0.000202219 -0.000170705 -0.000118179 -4.46453e-05);
    }
    left
    {
        type            calculated;
        value           uniform 0;
    }
    rifht
    {
        type            calculated;
        value           uniform 0;
    }
    up
    {
        type            calculated;
        value           nonuniform List<scalar> 9(8.83806e-05 0.000152227 0.000185629 0.000201635 0.000200405 0.000181622 0.000146042 9.55793e-05 3.27001e-05);
    }
    frontAndBackPlanes
    {
        type            empty;
        value           nonuniform 0();
    }
}


// ************************************************************************* //
