/*--------------------------------*- C++ -*----------------------------------*\
  =========                 |
  \\      /  F ield         | OpenFOAM: The Open Source CFD Toolbox
   \\    /   O peration     | Website:  https://openfoam.org
    \\  /    A nd           | Version:  6
     \\/     M anipulation  |
\*---------------------------------------------------------------------------*/
FoamFile
{
    version     2.0;
    format      ascii;
    class       volSymmTensorField;
    location    "3200";
    object      S;
}
// * * * * * * * * * * * * * * * * * * * * * * * * * * * * * * * * * * * * * //

dimensions      [0 0 -1 0 0 0 0];

internalField   nonuniform List<symmTensor> 
126
(
(4.47495 21.3693 -2.0432e-17 -8.45612 -1.11276e-16 8.68398e-35)
(5.49655 17.8312 -1.44774e-17 -4.47415 1.81688e-17 -5.66665e-35)
(2.72876 15.3814 -1.7406e-17 -1.95268 -1.39632e-16 1.24732e-34)
(0.368287 12.8759 -1.50905e-17 -0.332453 -9.12688e-17 7.8668e-34)
(-1.37227 10.8251 -1.89318e-17 0.714665 3.04532e-16 -4.38779e-34)
(-2.51888 7.02814 -7.77591e-17 3.74627 4.77851e-16 -1.71754e-33)
(0.457183 5.77924 7.40658e-18 1.41683 1.30173e-16 -2.1681e-34)
(1.68154 5.04665 1.97422e-17 -0.580103 1.30787e-16 -4.78245e-35)
(2.2401 5.66942 -8.24647e-18 -1.92365 3.42509e-17 1.27155e-35)
(2.00551 6.88383 2.2936e-17 -2.00681 1.71796e-16 6.97413e-34)
(1.60122 7.20864 3.1786e-17 -2.42164 -8.98757e-16 -2.5234e-33)
(0.862476 7.54102 9.05496e-17 -0.630901 -3.78064e-16 2.83892e-33)
(-2.10575 1.9559 1.3972e-17 2.0576 -1.05174e-16 -4.60963e-35)
(-2.35036 0.794801 3.75176e-17 2.17748 1.75629e-17 5.39547e-34)
(-0.852209 1.06188 9.83894e-18 0.874765 1.28389e-16 -1.41137e-34)
(0.424787 2.45092 6.10705e-18 -0.325644 -1.73389e-16 3.3329e-34)
(1.28795 3.57558 -3.35173e-17 -1.58934 6.64116e-16 1.1479e-33)
(1.79148 5.0674 -2.65554e-17 -2.01065 3.81179e-17 0)
(-1.74483 0.863666 -6.26225e-18 1.50234 9.41754e-17 2.3471e-35)
(-2.85927 0.177422 -3.33677e-17 2.60706 -3.12817e-16 -5.46367e-34)
(-2.31068 -0.0593679 2.15018e-17 2.38264 1.10172e-16 8.50852e-35)
(-1.26932 0.479299 -2.46365e-17 1.3878 -1.50144e-16 -2.92695e-35)
(-0.178455 1.29795 2.48564e-17 0.212269 -3.54679e-16 1.91142e-35)
(0.996363 2.38427 2.26914e-17 -1.14576 3.55525e-16 -2.04141e-35)
(-1.28705 0.171764 7.54792e-18 1.25545 -1.27607e-17 0)
(-2.57536 0.195235 -2.31969e-17 2.44639 1.66521e-16 2.06305e-34)
(-2.58782 0.0534404 2.6677e-18 2.6895 -7.73864e-17 -1.05648e-37)
(-2.03546 0.0341303 -1.42074e-17 2.09277 1.77014e-16 -5.07805e-36)
(-1.1965 0.374165 -1.47237e-17 1.22443 -1.61487e-16 5.07899e-36)
(-0.0813651 0.758232 -1.16884e-17 0.0597746 -3.8732e-16 1.49658e-35)
(-1.65035 -0.515171 0 1.41321 0 0)
(-2.66104 0.249023 4.3542e-17 2.41478 -9.6075e-18 0)
(-2.32232 0.0951928 -8.29742e-18 2.41326 7.63738e-17 1.08115e-37)
(-1.84473 -0.31883 8.47458e-19 1.83748 1.78091e-16 -1.41723e-34)
(-1.19052 -0.25999 -2.61256e-17 1.0909 -5.56747e-18 0)
(-0.262664 -0.374747 1.45606e-17 0.393046 3.99768e-16 -1.49329e-35)
(-2.25102 -1.47064 7.59285e-19 2.00129 2.7052e-17 0)
(-2.19906 -0.220626 4.24717e-17 2.06051 -3.37143e-16 -9.38676e-34)
(-1.06673 -1.21735 1.38333e-17 1.2085 -4.10995e-17 1.83769e-34)
(-0.627931 -2.1796 3.07226e-17 0.50526 -1.92701e-17 1.19693e-34)
(-0.264418 -2.0815 -1.95692e-17 -0.0442847 5.20842e-16 -6.81938e-34)
(0.393212 -2.44747 1.51338e-17 0.00471828 -3.16795e-16 1.79491e-34)
(0.0817285 -4.79824 1.44513e-17 1.73673 3.06413e-18 0)
(1.57496 -4.37548 -7.34551e-17 0.120311 8.74015e-17 1.85017e-33)
(2.01108 -6.09429 4.39664e-18 -1.3779 -1.38227e-16 -1.62081e-34)
(1.38034 -6.94518 1.29922e-17 -1.68688 -4.21966e-16 -6.84447e-34)
(0.986827 -6.33732 -1.58388e-17 -1.55226 2.05688e-16 2.88926e-34)
(0.941561 -6.35894 8.04171e-18 0.0793222 1.52961e-17 0)
(4.06394 -21.6235 -1.52926e-17 -9.41419 -1.84489e-17 0)
(3.95044 -18.4384 -1.34569e-18 -1.17987 2.5378e-16 -9.11177e-34)
(2.05888 -15.3909 3.20799e-18 -1.68671 -4.40577e-17 2.56728e-34)
(1.48833 -13.9 -3.19209e-17 -2.36105 2.94571e-17 8.53049e-34)
(0.582057 -13.8792 5.17631e-17 -1.96275 1.85804e-16 -2.60541e-34)
(-1.62234 -11.5584 -2.14663e-17 3.34305 -9.38381e-17 8.6293e-35)
(-1.93827 3.44626 1.7418e-17 1.90375 -1.56284e-16 1.18927e-33)
(-1.06628 1.70658 1.49777e-17 0.72621 -3.83763e-17 1.14625e-33)
(-0.440352 1.93948 -7.83e-17 0.493605 1.10928e-17 -1.07184e-33)
(0.754861 3.03927 -4.02703e-18 -0.845262 -1.92053e-16 1.18977e-32)
(-0.096516 6.64802 -3.16341e-17 0.55236 8.46431e-17 -1.9962e-33)
(-0.44635 5.16839 7.96395e-18 0.520699 1.51858e-16 7.54542e-33)
(-0.0844372 4.87095 7.48369e-17 -0.0437203 1.84319e-16 -3.83791e-33)
(0.686605 5.45245 -8.70803e-17 -0.686243 -2.58725e-16 3.24554e-34)
(1.35339 6.18117 5.36468e-17 -1.07701 -3.65644e-16 -2.40998e-33)
(0.866773 6.27604 3.27982e-17 -0.631823 1.69231e-17 -9.21588e-34)
(1.01883 5.99662 1.0662e-18 -1.51132 -8.03612e-16 -4.04901e-33)
(1.27795 5.93644 -9.68535e-17 -1.36742 4.30894e-16 2.49876e-33)
(1.51668 3.85627 -1.55941e-17 -1.36587 4.18748e-18 0)
(1.57624 4.95086 -4.37128e-17 -1.21193 -5.77908e-17 0)
(1.70942 5.03377 -2.95298e-17 -2.16868 6.87498e-16 1.75646e-33)
(1.65376 4.6903 1.41375e-16 -1.78452 8.70825e-16 -1.28584e-33)
(0.762076 1.55481 9.73378e-18 -0.73778 -2.94069e-17 0)
(1.22931 2.59933 1.25949e-17 -0.980821 6.61264e-16 1.25764e-33)
(1.4227 2.86064 7.0311e-18 -1.67334 -1.2252e-15 -2.9237e-33)
(1.28048 2.47418 1.05788e-17 -1.36183 -4.04057e-17 0)
(0.333986 -0.370443 -3.188e-17 -0.39003 -8.68416e-16 8.66499e-34)
(0.715715 0.0972362 9.2586e-17 -0.676525 1.51634e-15 -9.28355e-34)
(0.801731 0.21141 -1.82864e-16 -0.859675 -1.73032e-15 -9.69428e-34)
(0.564438 -0.19286 2.75128e-17 -0.548994 6.01538e-16 3.53562e-33)
(0.545165 -2.98546 -6.30611e-17 -0.700164 -8.12802e-16 -1.67024e-34)
(0.551564 -3.04116 5.64655e-17 -0.750413 5.89011e-16 5.38085e-34)
(0.300613 -3.09192 9.36906e-18 -0.220402 3.21132e-16 8.46552e-34)
(-0.180149 -3.36568 7.73814e-17 0.329413 6.50424e-16 -1.47947e-33)
(0.46593 -6.81569 -7.47357e-18 -0.665876 -5.0775e-17 -7.26972e-35)
(-0.0298886 -6.86807 7.90593e-18 -0.424957 2.82426e-17 0)
(-0.643312 -6.70345 -1.18333e-16 0.731581 -9.55077e-16 -4.35192e-34)
(-1.25425 -6.57782 9.03007e-17 1.47702 7.76745e-16 1.17746e-33)
(-2.20209 -9.4855 -7.71088e-17 1.99708 -3.03875e-16 1.15777e-34)
(-2.34972 -8.68257 5.95668e-17 1.89295 2.12669e-16 -1.04024e-34)
(-2.39609 -8.11015 -1.47621e-17 2.48736 1.26698e-17 0)
(-2.37909 -7.83893 4.23949e-17 2.37831 1.77381e-16 -9.00674e-34)
(2.26785 3.97179 -4.46186e-17 -2.36163 4.05465e-16 -1.48613e-32)
(3.77143 4.53884 -7.35739e-17 -4.08791 -2.58287e-16 -2.9492e-33)
(5.53338 5.60119 -5.81868e-17 -3.41832 -3.47507e-16 5.99167e-34)
(7.71875 5.47949 -2.63334e-16 -15.3689 -4.82917e-16 7.67798e-33)
(1.398 5.82808 1.19017e-16 -1.27346 9.86935e-17 -3.58686e-34)
(2.00948 5.93251 6.64893e-17 -1.8667 7.02688e-16 3.04009e-33)
(2.58836 6.85275 -2.86202e-16 -1.42062 -8.52679e-16 -5.78782e-33)
(1.8956 5.21867 2.65526e-16 -5.17744 5.19206e-16 -8.26569e-33)
(1.28715 5.85974 7.1107e-17 -1.13309 -3.02291e-17 0)
(1.13619 5.66216 3.64131e-16 -1.04285 1.10817e-15 -4.46947e-33)
(1.17681 5.67464 -1.71418e-16 -0.82949 -4.53614e-16 1.1125e-32)
(0.282515 3.7468 1.74359e-16 -2.05796 4.325e-16 -5.07697e-35)
(1.3438 4.36564 1.09377e-17 -1.15417 -2.98718e-16 3.00639e-33)
(0.980504 4.11518 -2.21143e-16 -0.842405 -1.45444e-15 1.11899e-34)
(0.880039 3.66547 4.0771e-16 -1.01244 1.99286e-15 -1.51581e-33)
(0.0498148 1.86911 -9.49031e-17 -0.615552 -5.12886e-16 3.79701e-33)
(0.948839 2.0462 -7.04607e-17 -0.803765 -4.425e-16 -1.75128e-33)
(0.753695 1.90529 -3.47422e-16 -0.656606 -1.68033e-15 -1.95002e-33)
(0.705884 1.27728 2.19018e-16 -1.0402 1.05693e-15 1.09184e-33)
(-0.186779 -0.0317815 2.82576e-16 0.511224 1.1971e-15 0)
(0.24551 -0.604525 3.71319e-18 -0.183208 7.48736e-18 0)
(0.282388 -0.588633 6.02297e-17 -0.403063 5.92905e-16 9.0189e-34)
(0.265054 -1.1625 2.32013e-16 -0.586078 1.03173e-15 -7.27804e-34)
(-0.711476 -1.81279 -3.07183e-18 1.64566 5.68246e-18 0)
(-0.570792 -3.51153 -1.82255e-16 0.646752 -1.20839e-15 -5.69323e-34)
(-0.384513 -3.29192 1.58293e-16 -0.0919719 1.05239e-15 3.93465e-34)
(-0.440649 -3.43975 -5.50929e-16 0.427415 -2.4476e-15 2.52723e-33)
(-1.50519 -3.40292 5.52503e-17 2.83072 1.916e-16 -3.80299e-33)
(-1.60251 -6.28662 2.4193e-17 1.8527 2.53071e-16 3.33885e-34)
(-1.47682 -6.26579 2.00045e-16 0.312943 9.2429e-16 -1.03054e-33)
(-1.60357 -5.43678 -2.16168e-16 2.31125 -1.03838e-15 -2.42798e-33)
(-2.60183 -4.84038 4.23476e-16 4.19079 1.58837e-15 5.36726e-33)
(-1.90158 -7.65455 9.96064e-18 2.34955 9.93632e-18 0)
(-2.54911 -10.091 -9.23501e-17 -0.836848 -4.15077e-16 2.71303e-34)
(-4.25028 -8.26603 9.21046e-17 6.223 3.97829e-16 -2.0576e-34)
(-3.89575 -6.52518 -2.24081e-17 6.48517 1.83984e-17 0)
)
;

boundaryField
{
    low
    {
        type            calculated;
        value           nonuniform List<symmTensor> 9((4.47495 22.401 -2.0432e-17 -16.8513 -5.02172e-17 8.68398e-35) (0.457183 7.68089 7.40658e-18 1.54614 6.61164e-17 -2.1681e-34) (-2.10575 3.01208 1.3972e-17 1.55705 -7.45522e-17 -4.60963e-35) (-1.74483 1.21687 -6.26225e-18 0.722713 4.91088e-17 2.3471e-35) (-1.28705 0.239376 7.54792e-18 0.478493 0 0) (-1.65035 -0.709906 0 0.527716 0 0) (-2.25102 -2.41509 7.59285e-19 1.23316 0 0) (0.0817285 -7.06391 1.44513e-17 2.36529 0 0) (4.06394 -23.1531 -1.52926e-17 -14.6853 5.49177e-17 0));
    }
    left
    {
        type            calculated;
        value           nonuniform List<symmTensor> 
14
(
(5.86727 35.8111 7.98208e-17 -6.69658 -1.0515e-16 8.68398e-35)
(6.07233 26.9391 -2.50648e-17 -4.34679 1.80947e-17 -5.66665e-35)
(1.44713 21.0653 -1.21144e-17 -1.03285 -2.1053e-16 1.88987e-34)
(-1.6569 15.6061 -8.80441e-18 0.363697 -1.27351e-16 9.41311e-34)
(-3.82311 12.4234 -2.01898e-16 1.51187 2.11982e-16 1.03045e-32)
(-5.08034 6.73924 -1.97502e-16 4.39797 3.2557e-16 2.08289e-32)
(-3.33722 1.58641 3.10055e-17 -0.1358 -1.4578e-16 1.18927e-33)
(-1.35108 -0.219301 3.04657e-17 -1.09916 5.65161e-17 3.12638e-34)
(-0.252194 0.460658 -1.03272e-16 1.00552 1.54637e-17 -1.07184e-33)
(1.41559 2.12086 -9.14909e-17 -0.0332583 -1.16069e-16 1.90019e-32)
(3.40086 3.40773 -3.00273e-16 -2.08684 5.51394e-16 -1.48613e-32)
(5.26207 4.1491 3.41357e-16 -4.13088 -4.96127e-16 -2.9492e-33)
(8.25173 5.0055 -9.04065e-17 -4.07602 -3.23097e-16 5.99167e-34)
(12.9793 5.93057 -5.41809e-16 -24.4478 -6.90499e-16 1.87183e-32)
)
;
    }
    rifht
    {
        type            calculated;
        value           nonuniform List<symmTensor> 
14
(
(5.40021 -38.056 -6.08164e-17 -8.34828 4.54977e-17 3.2762e-34)
(3.2911 -29.3019 9.8255e-17 2.56097 2.3672e-16 -9.11177e-34)
(0.147393 -20.4925 4.15664e-17 -0.258299 -1.31767e-16 1.88872e-33)
(0.546699 -17.0493 9.94723e-18 -2.74145 3.20089e-17 8.53049e-34)
(-0.60604 -18.2802 9.19473e-17 -2.47008 1.88138e-16 -2.60541e-34)
(-3.91466 -14.4553 -2.65845e-17 5.51316 2.52331e-17 2.7776e-33)
(-4.58747 -10.2578 -1.11684e-16 3.0677 -2.89343e-16 1.15777e-34)
(-4.08229 -8.37245 7.31838e-17 1.87264 2.04819e-16 6.21069e-34)
(-3.26172 -7.58944 2.07122e-18 2.28727 8.62947e-18 0)
(-2.37864 -7.45089 4.70777e-17 2.26516 1.79323e-16 -8.37371e-34)
(-1.52166 -8.31932 2.71629e-18 2.32095 8.28367e-18 -3.41324e-35)
(-4.56974 -14.3891 -9.16364e-17 -2.63252 -4.14919e-16 2.71303e-34)
(-6.43053 -10.3999 9.119e-17 8.04949 3.9816e-16 -2.0576e-34)
(-4.30998 -7.4099 2.1857e-18 7.69586 3.64308e-18 0)
)
;
    }
    up
    {
        type            calculated;
        value           nonuniform List<symmTensor> 9((8.93514 8.94047 -2.58623e-16 -5.9522 -4.66708e-16 7.67798e-33) (1.63184 5.07384 2.98769e-16 -3.14868 6.31446e-16 -8.26569e-33) (-0.230083 2.97715 1.89715e-16 -1.89279 4.80205e-16 -5.07697e-35) (-0.432231 1.17468 -1.29806e-16 -0.799249 -5.60683e-16 1.27745e-33) (-0.604079 -0.507704 2.46414e-16 0.549708 1.1783e-15 -2.26729e-33) (-1.02475 -1.93525 -4.74687e-18 2.31523 2.49285e-18 0) (-1.57453 -2.91298 5.64955e-17 4.48915 1.93502e-16 -3.80299e-33) (-2.12957 -3.35766 3.9638e-16 7.07044 1.55584e-15 5.36726e-33) (-2.54526 -3.60455 -1.95287e-17 10.7394 2.10675e-17 0));
    }
    frontAndBackPlanes
    {
        type            empty;
    }
}


// ************************************************************************* //
