/*--------------------------------*- C++ -*----------------------------------*\
  =========                 |
  \\      /  F ield         | OpenFOAM: The Open Source CFD Toolbox
   \\    /   O peration     | Website:  https://openfoam.org
    \\  /    A nd           | Version:  6
     \\/     M anipulation  |
\*---------------------------------------------------------------------------*/
FoamFile
{
    version     2.0;
    format      ascii;
    class       volVectorField;
    location    "3200";
    object      U;
}
// * * * * * * * * * * * * * * * * * * * * * * * * * * * * * * * * * * * * * //

dimensions      [0 1 -1 0 0 0 0];

internalField   nonuniform List<vector> 
126
(
(-0.00641629 0.195894 7.16739e-19)
(-0.00698041 0.20465 -3.24233e-19)
(-0.01169 0.211525 -2.23959e-19)
(-0.0189331 0.195955 -4.93651e-19)
(-0.0316926 0.180141 -3.5539e-18)
(-0.0393124 0.108069 -3.12534e-18)
(-0.0118695 0.534303 -9.67512e-19)
(-0.0154981 0.537309 -5.68489e-19)
(-0.0202804 0.539224 -2.66301e-19)
(-0.0286247 0.511458 -5.03341e-19)
(-0.0412676 0.474848 4.19519e-18)
(-0.0576543 0.378033 1.5882e-18)
(-0.00843156 0.785162 5.73673e-19)
(-0.0103148 0.784412 -2.46396e-19)
(-0.013201 0.780522 -5.05082e-19)
(-0.0200643 0.750381 4.85449e-19)
(-0.0282647 0.708168 -2.20843e-18)
(-0.0439425 0.629394 0)
(-0.00327921 0.937936 -3.7367e-19)
(0.000290985 0.935576 1.43444e-18)
(0.0013577 0.927696 -4.10699e-19)
(-0.00266546 0.90175 5.38582e-19)
(-0.00559605 0.865837 8.09994e-19)
(-0.0127562 0.814659 -7.82383e-19)
(0.00170322 0.990983 0)
(0.0117262 0.986099 -7.00723e-19)
(0.0170967 0.973242 2.93304e-19)
(0.0157903 0.954651 -4.6132e-19)
(0.0167406 0.933752 4.48634e-19)
(0.0197897 0.906465 6.88887e-19)
(0.00649455 0.944064 0)
(0.0222125 0.934541 0)
(0.030288 0.913898 -2.99741e-19)
(0.0303384 0.903657 -5.05773e-19)
(0.0339176 0.904254 0)
(0.045569 0.893106 -7.12352e-19)
(0.0112212 0.797103 0)
(0.0304765 0.781462 1.31352e-18)
(0.0377819 0.751059 -9.1594e-21)
(0.0364618 0.749996 -1.95375e-20)
(0.0414821 0.776996 -1.16922e-18)
(0.0599705 0.773767 7.43505e-19)
(0.0143158 0.550969 0)
(0.0325857 0.531685 -9.96849e-20)
(0.0347678 0.49389 6.63844e-19)
(0.0296443 0.502596 1.72763e-18)
(0.0351469 0.557085 -1.08439e-18)
(0.0589952 0.554651 0)
(0.00988616 0.211996 3.36557e-19)
(0.0205968 0.199756 -1.31559e-18)
(0.0164981 0.168234 -5.96399e-19)
(0.006429 0.180164 -8.26852e-20)
(0.0134414 0.240968 -1.32913e-18)
(0.0413468 0.23311 1.54416e-18)
(-0.0251628 0.0320964 3.89066e-19)
(-0.0107146 0.000726978 -7.86217e-20)
(-0.00253489 0.00769571 -1.89944e-18)
(0.0138469 0.0409305 -3.41462e-20)
(-0.0528046 0.243987 -1.59286e-18)
(-0.036451 0.147116 3.40744e-19)
(-0.0183279 0.142806 -4.11513e-18)
(0.019496 0.208125 4.52352e-18)
(-0.0515307 0.504845 1.27022e-18)
(-0.0441683 0.388748 1.55723e-18)
(-0.0221359 0.363801 5.92694e-18)
(0.023671 0.421695 -3.78727e-18)
(-0.0228865 0.730458 0)
(-0.0223358 0.637545 0)
(-0.000120514 0.602734 -3.2297e-18)
(0.043067 0.63096 -2.73084e-18)
(0.0156553 0.863859 0)
(0.0164521 0.810832 -1.23433e-18)
(0.0376505 0.778628 3.27271e-18)
(0.0727232 0.774914 0)
(0.0494504 0.876712 1.15892e-18)
(0.053792 0.85667 -2.31368e-18)
(0.0715335 0.831544 2.88203e-18)
(0.0950474 0.805188 -1.14545e-18)
(0.0697242 0.761699 1.05489e-18)
(0.0761492 0.755015 -9.15938e-19)
(0.0867638 0.734963 -4.84487e-19)
(0.0962103 0.700022 -8.4768e-19)
(0.069689 0.525713 7.22272e-20)
(0.0733862 0.512058 0)
(0.07372 0.49447 1.61969e-18)
(0.0694112 0.466046 -1.28425e-18)
(0.0460244 0.187324 9.26988e-19)
(0.0406883 0.167282 -1.06977e-18)
(0.0324877 0.158292 0)
(0.0225948 0.148005 -5.64967e-19)
(0.0353751 0.0790871 -9.07161e-18)
(0.0523976 0.101621 8.07914e-18)
(0.0747943 0.111998 1.59995e-18)
(0.135222 0.244681 -2.2197e-18)
(0.066894 0.275305 -4.48749e-18)
(0.108834 0.317423 -5.65368e-18)
(0.147963 0.36424 3.9862e-18)
(0.213057 0.502741 -2.7342e-18)
(0.0773469 0.482294 0)
(0.125273 0.517577 -3.64836e-18)
(0.169577 0.562501 7.93988e-19)
(0.223426 0.657532 -8.12829e-19)
(0.0900775 0.66353 1.68257e-18)
(0.132523 0.676736 2.93517e-18)
(0.175125 0.699428 -2.68755e-18)
(0.219607 0.738614 1.11503e-18)
(0.107616 0.77545 1.068e-18)
(0.141067 0.768604 1.96605e-18)
(0.179838 0.765193 -1.21395e-18)
(0.212304 0.751803 0)
(0.117165 0.783654 0)
(0.144108 0.771365 -6.66902e-19)
(0.179712 0.750518 -2.31122e-19)
(0.197408 0.698356 0)
(0.106147 0.67403 1.38622e-18)
(0.130897 0.67637 -1.03025e-18)
(0.166389 0.654137 -1.76299e-19)
(0.169082 0.581819 -4.31055e-19)
(0.0685892 0.452256 -3.49332e-19)
(0.0944284 0.485364 -1.30152e-19)
(0.133794 0.482757 -3.19901e-19)
(0.122994 0.408335 1.8742e-18)
(0.0132996 0.148322 -5.2616e-20)
(0.0312053 0.199894 1.99534e-19)
(0.0699055 0.232153 -3.89957e-19)
(0.0528323 0.176322 0)
)
;

boundaryField
{
    low
    {
        type            fixedValue;
        value           nonuniform List<vector> 9((0 0.209876 0) (0 0.555555 0) (0 0.80247 0) (0 0.950617 0) (0 1 0) (0 0.950618 0) (0 0.802473 0) (0 0.555551 0) (0 0.209875 0));
    }
    left
    {
        type            noSlip;
    }
    rifht
    {
        type            noSlip;
    }
    up
    {
        type            zeroGradient;
    }
    frontAndBackPlanes
    {
        type            empty;
    }
}


// ************************************************************************* //
