/*--------------------------------*- C++ -*----------------------------------*\
  =========                 |
  \\      /  F ield         | OpenFOAM: The Open Source CFD Toolbox
   \\    /   O peration     | Website:  https://openfoam.org
    \\  /    A nd           | Version:  6
     \\/     M anipulation  |
\*---------------------------------------------------------------------------*/
FoamFile
{
    version     2.0;
    format      ascii;
    class       volScalarField;
    location    "3200";
    object      V;
}
// * * * * * * * * * * * * * * * * * * * * * * * * * * * * * * * * * * * * * //

dimensions      [0 3 0 0 0 0 0];

internalField   nonuniform List<scalar> 
126
(
6.08758e-06
6.1986e-06
6.2955e-06
6.34582e-06
6.27548e-06
5.52769e-06
5.96279e-06
6.06662e-06
6.17079e-06
6.22207e-06
6.16905e-06
5.54297e-06
5.83659e-06
5.93315e-06
6.0445e-06
6.09645e-06
6.06075e-06
5.55757e-06
5.70882e-06
5.79802e-06
5.91647e-06
5.96876e-06
5.95036e-06
5.57146e-06
5.57934e-06
5.66108e-06
5.78652e-06
5.83879e-06
5.8377e-06
5.58459e-06
5.44798e-06
5.52215e-06
5.65447e-06
5.70632e-06
5.72254e-06
5.59691e-06
5.31457e-06
5.38106e-06
5.52013e-06
5.57114e-06
5.60467e-06
5.60835e-06
5.17895e-06
5.23762e-06
5.38333e-06
5.43301e-06
5.48387e-06
5.61884e-06
5.04095e-06
5.09166e-06
5.24388e-06
5.29174e-06
5.35995e-06
5.62827e-06
6.13837e-06
7.75895e-06
9.83131e-06
9.42188e-06
5.96046e-06
7.45967e-06
9.32656e-06
8.95764e-06
5.77253e-06
7.14008e-06
8.80812e-06
8.49188e-06
5.56396e-06
6.79244e-06
8.2597e-06
7.99801e-06
5.32145e-06
6.40219e-06
7.66189e-06
7.45164e-06
5.03089e-06
5.95563e-06
6.99382e-06
6.82349e-06
4.67868e-06
5.44015e-06
6.23668e-06
6.08684e-06
4.25298e-06
4.84588e-06
5.37719e-06
5.22254e-06
3.74734e-06
4.17073e-06
4.41523e-06
4.22928e-06
8.16513e-06
7.77681e-06
7.23402e-06
6.19207e-06
8.10524e-06
7.66701e-06
7.2361e-06
6.27618e-06
8.03144e-06
7.54211e-06
7.24725e-06
6.39803e-06
7.91011e-06
7.36316e-06
7.2296e-06
6.50989e-06
7.70677e-06
7.08922e-06
7.15115e-06
6.5809e-06
7.37882e-06
6.67067e-06
6.96502e-06
6.55787e-06
6.88351e-06
6.05847e-06
6.62025e-06
6.38063e-06
6.18451e-06
5.21229e-06
6.06929e-06
5.99018e-06
5.26928e-06
4.12273e-06
5.28632e-06
5.34625e-06
)
;

boundaryField
{
    low
    {
        type            calculated;
        value           uniform 0;
    }
    left
    {
        type            calculated;
        value           uniform 0;
    }
    rifht
    {
        type            calculated;
        value           uniform 0;
    }
    up
    {
        type            calculated;
        value           uniform 0;
    }
    frontAndBackPlanes
    {
        type            empty;
    }
}


// ************************************************************************* //
