/*--------------------------------*- C++ -*----------------------------------*\
  =========                 |
  \\      /  F ield         | OpenFOAM: The Open Source CFD Toolbox
   \\    /   O peration     | Website:  https://openfoam.org
    \\  /    A nd           | Version:  6
     \\/     M anipulation  |
\*---------------------------------------------------------------------------*/
FoamFile
{
    version     2.0;
    format      ascii;
    class       volVectorField;
    location    "0";
    object      C;
}
// * * * * * * * * * * * * * * * * * * * * * * * * * * * * * * * * * * * * * //

dimensions      [0 1 0 0 0 0 0];

internalField   nonuniform List<vector> 
126
(
(0.0102618 0.0142575 0)
(0.00946385 0.0427595 5.96983e-21)
(0.00847311 0.0712254 1.81149e-19)
(0.00578655 0.0995492 -3.59612e-19)
(0.0012093 0.127685 1.75749e-19)
(-0.00879478 0.153929 0)
(0.0326208 0.0139638 -4.74572e-19)
(0.0321887 0.0418574 9.08997e-20)
(0.0317267 0.0697061 1.90766e-19)
(0.0294539 0.0974409 0)
(0.0252502 0.125028 1.01436e-19)
(0.0167819 0.150892 2.10746e-19)
(0.0549809 0.0136668 -1.00564e-19)
(0.0549166 0.0409455 0)
(0.0549855 0.0681704 0)
(0.0531283 0.0953095 1.02538e-19)
(0.0493002 0.122341 0)
(0.0423703 0.147818 2.10225e-19)
(0.0773417 0.0133663 -1.99277e-19)
(0.077647 0.0400229 -1.07162e-19)
(0.0782486 0.0666166 0)
(0.0768085 0.0931526 -3.9373e-19)
(0.0733576 0.119621 0)
(0.0679683 0.144704 1.17743e-20)
(0.099703 0.0130618 -1.04924e-19)
(0.100379 0.0390885 0)
(0.101515 0.0650432 0)
(0.100493 0.090968 -1.06533e-19)
(0.0974202 0.116865 0)
(0.093573 0.141546 4.18533e-19)
(0.122065 0.0127531 0)
(0.123112 0.0381414 -1.11916e-19)
(0.124782 0.0634484 0)
(0.124179 0.0887533 0)
(0.121485 0.11407 0)
(0.119181 0.138339 0)
(0.144426 0.0124396 0)
(0.145845 0.0371804 -1.14535e-19)
(0.148049 0.0618304 0)
(0.147865 0.086506 0)
(0.14555 0.111233 0)
(0.144788 0.135082 -1.10105e-19)
(0.166787 0.0121212 1.12574e-19)
(0.168576 0.0362044 0)
(0.171314 0.0601875 1.02437e-19)
(0.171547 0.084224 0)
(0.169609 0.108352 1.12611e-19)
(0.17039 0.13177 0)
(0.189146 0.0117973 1.15492e-19)
(0.191304 0.0352125 0)
(0.194573 0.0585181 0)
(0.195221 0.0819048 0)
(0.19366 0.105423 0)
(0.195979 0.128399 -2.19518e-19)
(-0.0250568 0.178558 0)
(-0.0407006 0.205163 2.19091e-19)
(-0.0444607 0.234674 -2.3037e-19)
(-0.0342392 0.263909 0)
(0.00326877 0.174887 0)
(-0.00975336 0.200278 3.07695e-19)
(-0.0124104 0.228257 -1.30427e-19)
(-0.00285834 0.256016 0)
(0.0316067 0.171162 9.55307e-20)
(0.0212082 0.195319 0)
(0.0196535 0.221745 1.374e-19)
(0.0285346 0.248005 0)
(0.0599441 0.167356 1.11012e-19)
(0.0521539 0.19021 0)
(0.0516831 0.215013 0)
(0.0598735 0.239702 1.50175e-19)
(0.0882624 0.163442 1.03629e-19)
(0.0830405 0.184874 0)
(0.0836104 0.207938 0)
(0.0910671 0.230939 0)
(0.116536 0.15939 2.31186e-19)
(0.113805 0.179231 0)
(0.115335 0.200389 3.27676e-19)
(0.12198 0.221538 0)
(0.14473 0.155171 -2.4774e-19)
(0.144359 0.173204 1.1349e-19)
(0.146715 0.192248 0)
(0.152428 0.211341 1.03041e-19)
(0.172801 0.150765 1.20779e-20)
(0.174586 0.166734 0)
(0.177566 0.183426 1.15008e-19)
(0.182166 0.200236 0)
(0.200693 0.146159 8.57469e-20)
(0.204346 0.159796 0)
(0.207662 0.173891 -1.3751e-19)
(0.210903 0.188189 0)
(-0.0199938 0.289956 2.08739e-19)
(-0.00673631 0.314505 0)
(0.00824597 0.338138 -1.58562e-19)
(0.0272869 0.358479 -9.52025e-20)
(0.0101039 0.281476 0)
(0.0218689 0.306106 0)
(0.0355844 0.329872 0)
(0.0537359 0.350588 0)
(0.0401951 0.272836 0)
(0.0504344 0.297487 0)
(0.0628521 0.321327 0)
(0.0800827 0.342361 -3.81208e-19)
(0.0701967 0.263809 0)
(0.0788586 0.288364 0)
(0.0899293 0.312163 8.84328e-20)
(0.106188 0.333403 9.6871e-20)
(0.0999962 0.254174 -8.37956e-20)
(0.107006 0.278463 2.4568e-19)
(0.116658 0.302052 -3.32817e-19)
(0.131871 0.323327 1.79775e-19)
(0.129428 0.243701 -1.61758e-19)
(0.134679 0.267494 -9.50494e-20)
(0.142809 0.290642 -1.70567e-19)
(0.156868 0.31172 0)
(0.158268 0.232186 8.01123e-20)
(0.16161 0.255199 -1.03504e-19)
(0.168073 0.27762 0)
(0.180829 0.298212 1.85117e-19)
(0.186223 0.219481 0)
(0.187455 0.241391 -1.18446e-19)
(0.192054 0.262752 1.03217e-19)
(0.203302 0.282521 -2.88517e-19)
(0.212955 0.205535 0)
(0.211811 0.226005 -1.59637e-19)
(0.2143 0.245945 0)
(0.223779 0.264526 0)
)
;

boundaryField
{
    low
    {
        type            calculated;
        value           nonuniform List<vector> 
9
(
(0.0111111 0 0)
(0.0333333 0 0)
(0.0555556 0 0)
(0.0777778 0 0)
(0.1 0 0)
(0.122222 0 0)
(0.144444 0 0)
(0.166667 0 0)
(0.188889 0 0)
)
;
    }
    left
    {
        type            calculated;
        value           nonuniform List<vector> 
14
(
(-0.000878446 0.0143776 0)
(-0.00185762 0.0431593 0)
(-0.00310973 0.0719217 0)
(-0.00600515 0.100578 0)
(-0.0107664 0.128962 0)
(-0.0214587 0.155236 0)
(-0.0390053 0.180195 0)
(-0.0560002 0.207448 0)
(-0.0603413 0.237829 0)
(-0.0497654 0.267858 0)
(-0.0349685 0.294259 0)
(-0.0209398 0.318785 0)
(-0.00538308 0.342302 0)
(0.0141123 0.362471 0)
)
;
    }
    rifht
    {
        type            calculated;
        value           nonuniform List<vector> 
14
(
(0.200377 0.0116075 0)
(0.202715 0.0346621 0)
(0.206246 0.057616 0)
(0.20711 0.080715 0)
(0.20573 0.103901 0)
(0.208708 0.12652 0)
(0.214921 0.143641 0)
(0.219507 0.156032 0)
(0.223075 0.168758 0)
(0.225572 0.181731 0)
(0.226314 0.198213 0)
(0.223962 0.217859 0)
(0.225202 0.236916 0)
(0.233693 0.254789 0)
)
;
    }
    up
    {
        type            calculated;
        value           nonuniform List<vector> 
9
(
(0.0380678 0.367603 0)
(0.064031 0.359985 0)
(0.0898812 0.351998 0)
(0.11547 0.343217 0)
(0.140604 0.333229 0)
(0.165007 0.321585 0)
(0.188303 0.307884 0)
(0.210018 0.291815 0)
(0.22961 0.273235 0)
)
;
    }
    frontAndBackPlanes
    {
        type            empty;
    }
}


// ************************************************************************* //
