/*--------------------------------*- C++ -*----------------------------------*\
  =========                 |
  \\      /  F ield         | OpenFOAM: The Open Source CFD Toolbox
   \\    /   O peration     | Website:  https://openfoam.org
    \\  /    A nd           | Version:  6
     \\/     M anipulation  |
\*---------------------------------------------------------------------------*/
FoamFile
{
    version     2.0;
    format      ascii;
    class       volScalarField;
    location    "0";
    object      Cz;
}
// * * * * * * * * * * * * * * * * * * * * * * * * * * * * * * * * * * * * * //

dimensions      [0 1 0 0 0 0 0];

internalField   nonuniform List<scalar> 
126
(
0
5.96983e-21
1.81149e-19
-3.59612e-19
1.75749e-19
0
-4.74572e-19
9.08997e-20
1.90766e-19
0
1.01436e-19
2.10746e-19
-1.00564e-19
0
0
1.02538e-19
0
2.10225e-19
-1.99277e-19
-1.07162e-19
0
-3.9373e-19
0
1.17743e-20
-1.04924e-19
0
0
-1.06533e-19
0
4.18533e-19
0
-1.11916e-19
0
0
0
0
0
-1.14535e-19
0
0
0
-1.10105e-19
1.12574e-19
0
1.02437e-19
0
1.12611e-19
0
1.15492e-19
0
0
0
0
-2.19518e-19
0
2.19091e-19
-2.3037e-19
0
0
3.07695e-19
-1.30427e-19
0
9.55307e-20
0
1.374e-19
0
1.11012e-19
0
0
1.50175e-19
1.03629e-19
0
0
0
2.31186e-19
0
3.27676e-19
0
-2.4774e-19
1.1349e-19
0
1.03041e-19
1.20779e-20
0
1.15008e-19
0
8.57469e-20
0
-1.3751e-19
0
2.08739e-19
0
-1.58562e-19
-9.52025e-20
0
0
0
0
0
0
0
-3.81208e-19
0
0
8.84328e-20
9.6871e-20
-8.37956e-20
2.4568e-19
-3.32817e-19
1.79775e-19
-1.61758e-19
-9.50494e-20
-1.70567e-19
0
8.01123e-20
-1.03504e-19
0
1.85117e-19
0
-1.18446e-19
1.03217e-19
-2.88517e-19
0
-1.59637e-19
0
0
)
;

boundaryField
{
    low
    {
        type            calculated;
        value           uniform 0;
    }
    left
    {
        type            calculated;
        value           uniform 0;
    }
    rifht
    {
        type            calculated;
        value           uniform 0;
    }
    up
    {
        type            calculated;
        value           uniform 0;
    }
    frontAndBackPlanes
    {
        type            empty;
    }
}


// ************************************************************************* //
