/*--------------------------------*- C++ -*----------------------------------*\
  =========                 |
  \\      /  F ield         | OpenFOAM: The Open Source CFD Toolbox
   \\    /   O peration     | Website:  https://openfoam.org
    \\  /    A nd           | Version:  6
     \\/     M anipulation  |
\*---------------------------------------------------------------------------*/
FoamFile
{
    version     2.0;
    format      ascii;
    class       volScalarField;
    location    "3200";
    object      p;
}
// * * * * * * * * * * * * * * * * * * * * * * * * * * * * * * * * * * * * * //

dimensions      [0 2 -2 0 0 0 0];

internalField   nonuniform List<scalar> 
3773
(
0.219582
0.272475
0.28539
0.291941
0.2938
0.291709
0.283901
0.275795
0.267056
0.253814
0.245252
0.236049
0.224785
0.212897
0.190989
0.172467
0.156562
0.152878
0.154757
0.160571
0.16984
0.172537
0.166903
0.153474
0.129855
0.107556
0.0896234
0.0750309
0.0697394
0.0697735
0.0713377
0.0762274
0.0836178
0.246515
0.28211
0.288334
0.291377
0.291595
0.288908
0.281591
0.273934
0.265659
0.253568
0.244922
0.23554
0.224591
0.213715
0.195639
0.180433
0.166448
0.161391
0.160405
0.162549
0.167913
0.168323
0.162804
0.152183
0.13438
0.117222
0.102645
0.0893198
0.08258
0.0803109
0.079474
0.0818371
0.0871163
0.26858
0.293584
0.292687
0.291993
0.290301
0.286839
0.27966
0.272322
0.264511
0.253237
0.24469
0.23523
0.224599
0.214887
0.199877
0.187722
0.175491
0.16972
0.166345
0.165187
0.167055
0.165247
0.159695
0.151494
0.138374
0.125823
0.11467
0.103177
0.096223
0.0925975
0.0898983
0.0901506
0.093555
0.28342
0.30284
0.297578
0.293957
0.290544
0.286207
0.278833
0.271559
0.263977
0.253199
0.244835
0.235549
0.225364
0.216482
0.203255
0.192864
0.181812
0.175871
0.171216
0.168135
0.167896
0.164735
0.159108
0.152199
0.141645
0.131887
0.123157
0.113418
0.107095
0.103168
0.0995399
0.0985084
0.100723
0.294191
0.310038
0.302232
0.296468
0.291624
0.286451
0.278766
0.271423
0.26393
0.253504
0.245335
0.236319
0.226606
0.218332
0.206258
0.196926
0.186672
0.180726
0.175362
0.171161
0.169628
0.16567
0.16002
0.153875
0.144852
0.136845
0.12978
0.121468
0.115959
0.112204
0.108227
0.106479
0.108016
0.30247
0.315745
0.306405
0.299087
0.293103
0.287199
0.279196
0.271733
0.264262
0.254117
0.246126
0.237388
0.228111
0.220298
0.209057
0.200436
0.190766
0.184861
0.179075
0.174191
0.171805
0.167366
0.161739
0.15611
0.148116
0.141292
0.135406
0.128208
0.12346
0.120032
0.116025
0.11393
0.115147
0.309024
0.320317
0.310071
0.30165
0.294781
0.288267
0.279979
0.272381
0.264898
0.254989
0.247153
0.238671
0.229774
0.222307
0.211699
0.203579
0.194356
0.188511
0.182481
0.177187
0.174232
0.16951
0.163937
0.158671
0.151397
0.145392
0.140344
0.134004
0.129902
0.126828
0.122953
0.120748
0.121882
0.314392
0.324028
0.313274
0.304089
0.296549
0.289537
0.281013
0.273283
0.265771
0.256068
0.248361
0.240104
0.23153
0.224321
0.214211
0.206455
0.197591
0.191808
0.185648
0.180128
0.176788
0.171912
0.16641
0.161403
0.154652
0.149221
0.144768
0.139083
0.135504
0.132749
0.129075
0.126895
0.128087
0.31895
0.327095
0.316079
0.306381
0.298336
0.290928
0.282218
0.27437
0.266819
0.257302
0.249699
0.241633
0.233332
0.226313
0.21661
0.209131
0.200567
0.194845
0.188625
0.182992
0.179387
0.174436
0.169014
0.164196
0.15784
0.152819
0.148788
0.143606
0.140436
0.137945
0.134483
0.132393
0.133705
0.322939
0.329677
0.31855
0.308519
0.300101
0.292379
0.283531
0.275581
0.267989
0.258642
0.25112
0.243213
0.235141
0.22826
0.218904
0.211643
0.203339
0.197673
0.191438
0.185762
0.181966
0.176987
0.171645
0.166967
0.160919
0.156196
0.152467
0.147674
0.144819
0.142531
0.139268
0.13729
0.138732
0.326513
0.331887
0.320738
0.310505
0.301815
0.293846
0.284903
0.276868
0.269235
0.260045
0.252583
0.244807
0.236927
0.230144
0.221092
0.214008
0.205937
0.20032
0.194094
0.18842
0.184478
0.179496
0.174231
0.169654
0.163856
0.159352
0.155836
0.151349
0.148732
0.146592
0.143505
0.141638
0.14319
0.329772
0.333799
0.322681
0.312342
0.303457
0.295295
0.286292
0.278188
0.270515
0.261473
0.254052
0.246382
0.238662
0.231947
0.223167
0.216231
0.208372
0.202794
0.196595
0.190945
0.186884
0.181913
0.176717
0.172213
0.166621
0.16228
0.158911
0.154667
0.152225
0.150187
0.147248
0.145481
0.147109
0.332766
0.335462
0.324406
0.314029
0.305008
0.296697
0.287662
0.279505
0.271793
0.262889
0.255496
0.247911
0.240325
0.233654
0.225121
0.218308
0.210645
0.205097
0.198933
0.193319
0.189154
0.184198
0.179064
0.174609
0.169191
0.164969
0.161698
0.157648
0.15533
0.153354
0.150539
0.148852
0.15051
0.335527
0.336906
0.325926
0.315565
0.306452
0.298026
0.288983
0.280785
0.273037
0.264264
0.256886
0.249369
0.241895
0.235249
0.226943
0.220235
0.212753
0.207224
0.201098
0.195523
0.191263
0.186321
0.181241
0.176816
0.171547
0.167412
0.164199
0.160304
0.158069
0.156122
0.153407
0.15178
0.153424
0.338074
0.338147
0.327252
0.316942
0.307773
0.299259
0.290227
0.281999
0.274218
0.26557
0.258198
0.250735
0.243353
0.236717
0.228622
0.222001
0.214688
0.209167
0.20308
0.197543
0.19319
0.188259
0.183224
0.178815
0.173674
0.1696
0.166414
0.162643
0.160453
0.158508
0.155871
0.154282
0.155864
0.340408
0.339192
0.328385
0.318155
0.308955
0.300375
0.29137
0.283121
0.27531
0.26678
0.259408
0.251987
0.244682
0.238046
0.230148
0.223599
0.216442
0.210918
0.204869
0.199365
0.194918
0.189993
0.184995
0.180589
0.175559
0.171526
0.168342
0.164669
0.162493
0.160525
0.157947
0.156376
0.157848
0.342528
0.340043
0.329324
0.319195
0.309985
0.301355
0.292388
0.284128
0.276291
0.267874
0.260496
0.253109
0.245868
0.239222
0.23151
0.225019
0.218008
0.212469
0.206456
0.200977
0.196435
0.19151
0.186542
0.182128
0.177196
0.173186
0.169983
0.166385
0.164195
0.162185
0.159648
0.158071
0.159385
0.344431
0.340698
0.330066
0.320051
0.310848
0.302181
0.293264
0.284998
0.27714
0.268831
0.261445
0.254087
0.246898
0.240236
0.232698
0.226255
0.219379
0.213814
0.207835
0.202372
0.197732
0.192801
0.187855
0.183425
0.178578
0.174577
0.171338
0.167795
0.165566
0.163496
0.160984
0.159382
0.160498
0.346109
0.341152
0.330605
0.320717
0.311533
0.30284
0.293979
0.285716
0.27784
0.269636
0.262241
0.254906
0.247762
0.24108
0.233708
0.227299
0.22055
0.214949
0.209001
0.203544
0.198805
0.19386
0.18893
0.184476
0.179702
0.175698
0.172408
0.168902
0.166612
0.164467
0.161963
0.160315
0.161187
0.347554
0.341401
0.330936
0.321182
0.312027
0.303318
0.29452
0.286266
0.278376
0.270275
0.262871
0.255559
0.248451
0.241747
0.234532
0.22815
0.221518
0.215871
0.209953
0.204493
0.199651
0.194686
0.189765
0.18528
0.180569
0.176551
0.173198
0.169713
0.16734
0.165108
0.162598
0.160884
0.161477
0.34876
0.341439
0.331053
0.321439
0.312323
0.303605
0.294876
0.286636
0.278738
0.270737
0.263327
0.256037
0.24896
0.242235
0.235169
0.228804
0.222283
0.216581
0.210692
0.205219
0.200273
0.19528
0.190361
0.185839
0.181182
0.17714
0.173712
0.170233
0.16776
0.165429
0.162899
0.161101
0.161379
0.34972
0.341261
0.330953
0.321483
0.312412
0.303691
0.295036
0.286817
0.278917
0.271014
0.263602
0.256336
0.249286
0.242541
0.235619
0.229264
0.222846
0.217083
0.21122
0.205726
0.200674
0.195648
0.190724
0.186159
0.181545
0.177471
0.173959
0.170472
0.167881
0.165441
0.162879
0.160978
0.160909
0.350429
0.340864
0.330632
0.321308
0.312288
0.303572
0.294995
0.286803
0.278908
0.271101
0.263692
0.256454
0.24943
0.242669
0.235885
0.229534
0.223213
0.217381
0.211546
0.206021
0.200862
0.195796
0.19086
0.186247
0.181667
0.177552
0.173947
0.17044
0.167714
0.165158
0.162552
0.160533
0.160095
0.350883
0.340246
0.330087
0.32091
0.311948
0.303242
0.294748
0.28659
0.278706
0.270998
0.263598
0.256393
0.249394
0.242621
0.235973
0.229621
0.223392
0.217486
0.211679
0.206114
0.200849
0.195736
0.19078
0.186113
0.181555
0.177392
0.173687
0.170147
0.167273
0.164593
0.161933
0.159779
0.158946
0.351079
0.339403
0.329318
0.320289
0.311389
0.302699
0.294293
0.286176
0.278312
0.270703
0.263322
0.256155
0.249183
0.242407
0.23589
0.229533
0.223393
0.217409
0.211632
0.206018
0.200647
0.195479
0.190496
0.185769
0.181223
0.177004
0.173192
0.169606
0.16657
0.163762
0.161039
0.158738
0.157496
0.351014
0.338337
0.328324
0.319443
0.31061
0.301944
0.29363
0.285562
0.277728
0.270221
0.262867
0.255749
0.248807
0.242035
0.235649
0.229285
0.22323
0.217166
0.211419
0.205749
0.200271
0.195043
0.190023
0.185229
0.180683
0.176399
0.172473
0.168831
0.165622
0.162682
0.159887
0.157426
0.155762
0.350692
0.337049
0.327108
0.318373
0.309614
0.300977
0.292762
0.284752
0.276958
0.269556
0.262241
0.255182
0.248275
0.241519
0.235262
0.228891
0.22292
0.216773
0.211059
0.205325
0.199742
0.194444
0.189377
0.184509
0.17995
0.175593
0.171547
0.167838
0.164444
0.161368
0.158494
0.155864
0.153771
0.350107
0.335539
0.325672
0.317083
0.308403
0.299803
0.291693
0.28375
0.276008
0.268716
0.261454
0.254466
0.2476
0.240873
0.234748
0.228371
0.222483
0.216252
0.210574
0.204768
0.199079
0.193703
0.188579
0.183626
0.17904
0.174601
0.170428
0.166641
0.163051
0.159838
0.156879
0.154072
0.151551
0.349265
0.333811
0.32402
0.315576
0.306982
0.298427
0.290429
0.282564
0.274886
0.267711
0.260516
0.253614
0.246798
0.240114
0.234124
0.227744
0.22194
0.215626
0.209986
0.204102
0.198307
0.192842
0.187649
0.182602
0.177972
0.17344
0.169133
0.165256
0.161461
0.158109
0.15506
0.152069
0.149123
0.348177
0.331874
0.322158
0.313858
0.305355
0.296854
0.288975
0.2812
0.273601
0.266551
0.25944
0.252639
0.245886
0.239262
0.233411
0.227033
0.221316
0.214922
0.209324
0.203353
0.197452
0.191888
0.186609
0.181455
0.176764
0.172126
0.167677
0.1637
0.15969
0.156198
0.153054
0.149875
0.146514
0.346832
0.329727
0.320091
0.311936
0.303531
0.295093
0.287342
0.279668
0.272163
0.265247
0.258238
0.251557
0.244879
0.238335
0.232632
0.226264
0.220637
0.214167
0.208616
0.202551
0.196542
0.190866
0.185485
0.180209
0.175435
0.170678
0.166077
0.161986
0.157752
0.154118
0.150876
0.147505
0.143744
0.345253
0.327383
0.317829
0.309816
0.301516
0.293152
0.285537
0.277978
0.270584
0.263812
0.256925
0.250383
0.243797
0.237356
0.231809
0.225463
0.219934
0.213394
0.207894
0.201728
0.195609
0.189806
0.184305
0.178888
0.174008
0.169115
0.16435
0.16013
0.155661
0.151884
0.148539
0.144975
0.140834
0.343421
0.32484
0.315378
0.307507
0.29932
0.29104
0.28357
0.27614
0.268872
0.262256
0.255512
0.249133
0.242657
0.236343
0.230966
0.224657
0.219236
0.212636
0.207193
0.20092
0.194689
0.188742
0.183098
0.177519
0.172505
0.167454
0.162511
0.158146
0.15343
0.149507
0.146055
0.142297
0.137798
0.341353
0.322111
0.312747
0.305019
0.296953
0.288767
0.281451
0.274162
0.267039
0.26059
0.254012
0.247819
0.241475
0.235316
0.230127
0.223872
0.218573
0.211927
0.20655
0.200165
0.193818
0.18771
0.181897
0.176131
0.17095
0.165717
0.160576
0.156045
0.151069
0.146994
0.143429
0.139477
0.134648
0.339075
0.31921
0.30995
0.302364
0.294426
0.286342
0.279188
0.272053
0.265091
0.258821
0.252433
0.246451
0.240264
0.234291
0.229311
0.223135
0.217978
0.211303
0.206005
0.199506
0.19304
0.18675
0.18074
0.174755
0.16937
0.163923
0.15856
0.15384
0.148585
0.14435
0.140665
0.136518
0.131389
0.336555
0.316138
0.306996
0.299554
0.29175
0.283777
0.276789
0.269818
0.263033
0.256955
0.25078
0.245036
0.239032
0.233282
0.228536
0.222471
0.21748
0.210803
0.2056
0.198989
0.192403
0.185909
0.179669
0.173429
0.167796
0.162096
0.15648
0.151539
0.145983
0.141575
0.137759
0.133415
0.12802
0.333819
0.312912
0.303904
0.296604
0.288937
0.28108
0.274261
0.267463
0.260867
0.254991
0.249053
0.243574
0.237784
0.232296
0.227815
0.221899
0.217109
0.210464
0.20538
0.198665
0.191959
0.185241
0.178733
0.172195
0.166261
0.160263
0.154352
0.149153
0.143265
0.138664
0.134701
0.130155
0.124522
0.330906
0.309559
0.300695
0.293533
0.286004
0.278261
0.271608
0.264985
0.258588
0.252922
0.247243
0.242058
0.236513
0.231332
0.227154
0.221435
0.21689
0.210322
0.205393
0.19859
0.191772
0.184808
0.177994
0.171108
0.164809
0.158452
0.152196
0.146687
0.140427
0.135605
0.131473
0.126717
0.120886
0.327788
0.306092
0.297393
0.290363
0.282964
0.275328
0.268831
0.262379
0.256185
0.250733
0.245333
0.24047
0.235206
0.230378
0.226549
0.221086
0.216842
0.210413
0.205688
0.19883
0.191913
0.184686
0.177524
0.170232
0.163493
0.156704
0.150032
0.144149
0.137464
0.13238
0.128046
0.123061
0.117061
0.324545
0.302561
0.294038
0.287124
0.279836
0.272289
0.265925
0.259632
0.253637
0.248399
0.243295
0.23878
0.233835
0.229413
0.225985
0.22085
0.216979
0.21077
0.206318
0.199453
0.192469
0.18497
0.177418
0.169652
0.162383
0.155067
0.147889
0.141547
0.134361
0.128958
0.124376
0.119138
0.113006
0.321176
0.299006
0.290678
0.283853
0.276641
0.269146
0.262881
0.256722
0.250913
0.245881
0.241085
0.236943
0.232356
0.228397
0.225433
0.220712
0.217304
0.211419
0.207333
0.200541
0.193542
0.185776
0.177794
0.169478
0.161571
0.153609
0.145805
0.138889
0.131099
0.125296
0.120401
0.11487
0.108631
0.317798
0.295524
0.287387
0.280597
0.273402
0.265899
0.259678
0.253612
0.247965
0.243125
0.238645
0.234897
0.230708
0.227275
0.224845
0.220639
0.217805
0.212382
0.208789
0.202185
0.195256
0.187251
0.178809
0.16986
0.161184
0.152421
0.14383
0.136184
0.127647
0.121329
0.116028
0.110147
0.103831
0.314605
0.292261
0.284268
0.277417
0.27014
0.262538
0.256281
0.25025
0.244728
0.240056
0.235893
0.23256
0.228812
0.225969
0.224153
0.220583
0.218458
0.213666
0.210736
0.204486
0.197758
0.18958
0.180668
0.171002
0.1614
0.151637
0.14204
0.133444
0.123955
0.116956
0.111121
0.104811
0.0984445
0.31178
0.289399
0.281452
0.274383
0.266869
0.259033
0.252631
0.246557
0.241108
0.236575
0.232729
0.229829
0.226567
0.224383
0.22327
0.220472
0.219214
0.215268
0.21322
0.207556
0.201228
0.193
0.183645
0.173182
0.162472
0.151448
0.140542
0.130685
0.119942
0.112024
0.105472
0.0986292
0.0922477
0.309768
0.287248
0.279118
0.27157
0.263593
0.255334
0.248643
0.242429
0.236994
0.232567
0.229037
0.226591
0.223861
0.222409
0.222092
0.220214
0.220003
0.217161
0.216272
0.211508
0.205862
0.197792
0.188082
0.176768
0.164742
0.152128
0.139494
0.127927
0.115486
0.1063
0.0987818
0.0912814
0.0849492
0.309275
0.286275
0.277479
0.269037
0.26027
0.251337
0.244185
0.237722
0.23224
0.227891
0.224684
0.222718
0.220571
0.219924
0.220501
0.219696
0.220725
0.21929
0.219905
0.216457
0.211887
0.204298
0.194418
0.182253
0.168695
0.154069
0.139127
0.12519
0.110385
0.0994257
0.0906084
0.0823172
0.0761534
0.311471
0.287241
0.276752
0.266704
0.256663
0.246713
0.2389
0.232087
0.226513
0.22224
0.219403
0.217971
0.216469
0.216721
0.218306
0.218732
0.221214
0.221569
0.224175
0.22265
0.219759
0.213198
0.203527
0.19064
0.175336
0.15811
0.139913
0.122422
0.104027
0.0904466
0.0798838
0.0707534
0.065134
0.318655
0.291206
0.27701
0.264182
0.252143
0.240703
0.232031
0.224815
0.219154
0.21502
0.212693
0.211922
0.211146
0.212454
0.215221
0.217027
0.221218
0.223841
0.229198
0.230523
0.230301
0.225744
0.217073
0.203901
0.186728
0.166029
0.142856
0.119375
0.0947342
0.0769379
0.0640629
0.0543676
0.0502168
0.329993
0.296361
0.277735
0.261706
0.247445
0.234336
0.224858
0.217284
0.211595
0.207648
0.205901
0.205861
0.205724
0.20809
0.212047
0.215022
0.220941
0.22565
0.233997
0.23832
0.241214
0.239222
0.232181
0.219242
0.20041
0.175977
0.147038
0.116595
0.0842821
0.0618628
0.0466372
0.0366383
0.0344002
0.0910845
0.0998239
0.108422
0.116496
0.124331
0.131745
0.138522
0.144882
0.150825
0.156538
0.161759
0.166793
0.171717
0.176559
0.181323
0.186107
0.190891
0.195438
0.200022
0.203669
0.207301
0.209864
0.211608
0.0924146
0.0997326
0.107318
0.114651
0.122011
0.129205
0.135885
0.142262
0.148281
0.154206
0.159637
0.164905
0.170069
0.175074
0.179862
0.184557
0.189125
0.193319
0.197468
0.20058
0.203672
0.205685
0.207006
0.0963765
0.102122
0.108401
0.114669
0.121283
0.128013
0.13436
0.140555
0.146454
0.152443
0.157907
0.163256
0.168528
0.173577
0.178281
0.182799
0.187095
0.190888
0.194633
0.197205
0.199847
0.201396
0.202407
0.10139
0.1058
0.11082
0.115949
0.1217
0.127843
0.133713
0.139596
0.145248
0.151204
0.156593
0.161927
0.167234
0.172274
0.176868
0.181213
0.185275
0.188745
0.192189
0.194343
0.196677
0.197904
0.198724
0.106893
0.110245
0.114147
0.118165
0.123011
0.128493
0.133791
0.139263
0.144569
0.150408
0.155644
0.160892
0.166181
0.171172
0.175635
0.179808
0.183656
0.186848
0.190044
0.19185
0.19394
0.194907
0.195576
0.112587
0.115154
0.118124
0.121132
0.125095
0.129891
0.134564
0.139556
0.144434
0.150083
0.155094
0.16019
0.165406
0.170305
0.174611
0.1786
0.182237
0.185173
0.188142
0.189636
0.191512
0.192245
0.19277
0.11821
0.120243
0.122482
0.124626
0.127784
0.131915
0.135953
0.140431
0.144828
0.150228
0.154954
0.159839
0.16493
0.169691
0.173809
0.177594
0.181012
0.183699
0.186448
0.187648
0.189319
0.189824
0.190201
0.123575
0.125278
0.126979
0.128423
0.130883
0.134406
0.137832
0.141794
0.145682
0.150786
0.155181
0.159805
0.164724
0.169303
0.173201
0.17676
0.179944
0.182379
0.184903
0.185815
0.187278
0.187548
0.187761
0.128562
0.130083
0.131405
0.132304
0.134188
0.137179
0.140048
0.14352
0.146902
0.151686
0.155725
0.160051
0.164756
0.16911
0.172754
0.176058
0.178985
0.181158
0.183441
0.184058
0.185302
0.185325
0.185358
0.133126
0.134558
0.135619
0.136108
0.137529
0.140071
0.142449
0.145475
0.148375
0.152829
0.1565
0.160504
0.16496
0.16905
0.17241
0.175428
0.178074
0.179967
0.181989
0.182303
0.18331
0.183071
0.182904
0.137251
0.138645
0.139529
0.139711
0.140766
0.142933
0.144889
0.14752
0.149974
0.154102
0.157407
0.161077
0.165259
0.169053
0.172099
0.174804
0.177141
0.178736
0.180474
0.180472
0.181225
0.180711
0.180328
0.14094
0.142325
0.143091
0.14305
0.143821
0.145675
0.147267
0.149547
0.151591
0.155388
0.158329
0.161652
0.165535
0.169005
0.171718
0.174087
0.176093
0.177377
0.178809
0.178484
0.178963
0.17816
0.177541
0.144189
0.145557
0.14623
0.146018
0.146559
0.148152
0.14944
0.151422
0.153107
0.156595
0.159195
0.162179
0.16575
0.168877
0.171236
0.173247
0.174899
0.175855
0.176958
0.176304
0.176497
0.175401
0.174543
0.147031
0.148373
0.148972
0.148631
0.148987
0.150351
0.151374
0.153089
0.154447
0.157623
0.15989
0.162532
0.165776
0.168541
0.170537
0.172174
0.173459
0.174078
0.174838
0.173853
0.173749
0.172356
0.171249
0.149464
0.150753
0.151278
0.150831
0.15103
0.15219
0.152982
0.15446
0.15553
0.158404
0.160359
0.162668
0.165577
0.167972
0.169596
0.170851
0.171754
0.172031
0.172434
0.171124
0.170716
0.169031
0.167677
0.151508
0.152719
0.153169
0.152637
0.1527
0.153672
0.154257
0.155515
0.156319
0.158886
0.160533
0.162506
0.165065
0.167077
0.168327
0.169194
0.169712
0.169646
0.169686
0.168059
0.167345
0.165374
0.163772
0.153165
0.154258
0.154615
0.153999
0.153932
0.154722
0.155117
0.156174
0.156745
0.159018
0.160382
0.162038
0.164251
0.165881
0.166761
0.167241
0.167372
0.166965
0.166641
0.164713
0.163696
0.161458
0.159619
0.154461
0.155415
0.155676
0.154992
0.15481
0.155423
0.155637
0.156489
0.156829
0.158784
0.159849
0.161171
0.163014
0.16425
0.164759
0.164856
0.164606
0.163865
0.163178
0.160966
0.159649
0.157153
0.155076
0.155379
0.15615
0.156289
0.15553
0.155229
0.155665
0.15571
0.156372
0.156509
0.158163
0.158958
0.159967
0.161449
0.162303
0.162453
0.162178
0.161556
0.160493
0.159454
0.156983
0.155378
0.152651
0.150356
0.155955
0.156517
0.156521
0.155691
0.155273
0.155527
0.155405
0.15587
0.155807
0.157145
0.157664
0.158357
0.159468
0.159938
0.159738
0.159102
0.158121
0.15675
0.155369
0.152664
0.150781
0.147842
0.145334
0.156187
0.15651
0.156365
0.155464
0.15493
0.155002
0.154719
0.154985
0.154731
0.155746
0.155991
0.156364
0.157097
0.157185
0.156644
0.155661
0.154338
0.152674
0.150968
0.148053
0.145905
0.142775
0.140066
0.156085
0.156137
0.155818
0.154836
0.154178
0.154061
0.15362
0.153689
0.153261
0.153967
0.153961
0.154042
0.154416
0.154148
0.15329
0.151988
0.15035
0.148416
0.146407
0.143317
0.140924
0.137635
0.134743
0.155681
0.155448
0.154949
0.153893
0.153115
0.152808
0.152209
0.152068
0.151457
0.151828
0.151549
0.151315
0.151307
0.150674
0.149499
0.147885
0.145946
0.143753
0.141457
0.13821
0.135579
0.132144
0.12907
0.154965
0.154419
0.153718
0.152577
0.151673
0.151172
0.150421
0.150078
0.149309
0.149372
0.148855
0.148343
0.147987
0.147029
0.145571
0.143684
0.141482
0.139062
0.136513
0.133149
0.130308
0.126762
0.123529
0.153979
0.153109
0.1522
0.150977
0.149947
0.149249
0.148348
0.147792
0.146861
0.146605
0.145843
0.145047
0.14434
0.143062
0.141332
0.139189
0.136744
0.134111
0.131327
0.127866
0.124824
0.121183
0.117794
0.152727
0.151523
0.150398
0.149092
0.147936
0.147043
0.145998
0.145232
0.144149
0.143582
0.142587
0.141521
0.140474
0.138899
0.136915
0.134541
0.131884
0.129059
0.126068
0.122535
0.119311
0.115596
0.112065
0.151232
0.149687
0.148338
0.146949
0.145669
0.144583
0.143403
0.14243
0.141214
0.140354
0.13915
0.137844
0.136489
0.134657
0.132454
0.129888
0.127057
0.124071
0.120908
0.117335
0.11395
0.110186
0.106521
0.149519
0.147636
0.146066
0.144599
0.143198
0.141923
0.140615
0.139431
0.138084
0.136932
0.135518
0.133971
0.13231
0.13023
0.127813
0.125068
0.122082
0.118942
0.115624
0.112021
0.108481
0.104676
0.100882
0.1476
0.145385
0.143596
0.142057
0.140545
0.13909
0.137669
0.136287
0.134832
0.133412
0.131818
0.130062
0.128131
0.125844
0.123249
0.120365
0.117265
0.114002
0.110565
0.106962
0.103288
0.0994653
0.0955513
0.145498
0.142964
0.140964
0.139362
0.137747
0.136124
0.134607
0.133035
0.131488
0.129819
0.128063
0.126122
0.123944
0.121482
0.118732
0.115736
0.112551
0.109183
0.105652
0.102065
0.0982691
0.0944397
0.090411
0.143228
0.140393
0.138196
0.136543
0.134839
0.133063
0.13147
0.129721
0.128106
0.126211
0.12432
0.122219
0.119826
0.117225
0.114345
0.111268
0.108032
0.104579
0.100981
0.097427
0.093522
0.0896974
0.0855578
0.140804
0.137692
0.135314
0.133626
0.131849
0.129941
0.128295
0.126389
0.124731
0.122641
0.120643
0.118416
0.115842
0.113142
0.11016
0.107034
0.10378
0.100263
0.0966278
0.0931221
0.08912
0.0853106
0.0810639
0.138238
0.134878
0.132341
0.130635
0.128807
0.126789
0.12512
0.123079
0.121409
0.119158
0.117088
0.11477
0.112056
0.109298
0.106246
0.103105
0.0998675
0.0963085
0.0926648
0.0892236
0.0851368
0.0813524
0.0770026
0.135535
0.131961
0.12929
0.127589
0.125733
0.123633
0.121973
0.119826
0.11818
0.115808
0.113706
0.111336
0.108526
0.105758
0.102669
0.0995489
0.0963646
0.0927873
0.089166
0.0858058
0.0816483
0.0778996
0.0734519
0.132695
0.128945
0.126168
0.124496
0.122638
0.120488
0.118874
0.116651
0.115068
0.112619
0.110525
0.108149
0.105289
0.10256
0.0994696
0.0964081
0.093316
0.089747
0.0861824
0.0829236
0.0787138
0.075017
0.0704845
0.12971
0.125828
0.12298
0.121365
0.119536
0.117374
0.115848
0.11359
0.112119
0.109647
0.107618
0.105294
0.102449
0.0998234
0.0967844
0.0938351
0.0908878
0.0873663
0.0839034
0.0807749
0.0765389
0.0729144
0.0683075
0.126557
0.122586
0.119696
0.118164
0.116393
0.114252
0.112855
0.110598
0.109283
0.106837
0.104918
0.102691
0.0999072
0.0974326
0.0944771
0.0916752
0.0889097
0.0854632
0.0821396
0.0791657
0.0749283
0.0714007
0.0667504
0.123217
0.119206
0.116314
0.1149
0.113224
0.111147
0.109929
0.107722
0.106619
0.104262
0.102521
0.100462
0.0978208
0.0955798
0.0927795
0.0901978
0.0876867
0.0843782
0.081263
0.0784982
0.0743162
0.0709379
0.0662853
0.119627
0.115625
0.112763
0.111491
0.109941
0.107967
0.106974
0.104861
0.104021
0.101813
0.100305
0.0984709
0.0960316
0.0940827
0.0914848
0.0891737
0.0869713
0.08385
0.0810042
0.0784988
0.0744265
0.0712524
0.0666635
0.115741
0.111797
0.109003
0.107908
0.106519
0.10469
0.103969
0.101998
0.101475
0.0994798
0.0982692
0.0967314
0.0945763
0.0930037
0.0906854
0.0887247
0.086914
0.0840614
0.0815772
0.0794154
0.0755505
0.0726816
0.0682604
0.111447
0.107613
0.104919
0.104027
0.102833
0.10119
0.100788
0.0990083
0.0988561
0.0971362
0.096284
0.095106
0.0933065
0.0921803
0.0902068
0.0886657
0.0873221
0.0848183
0.0827895
0.0810605
0.0775089
0.0750556
0.0709342
0.106634
0.10296
0.100405
0.0997471
0.09878
0.0973636
0.0973249
0.0957827
0.0960463
0.0946602
0.0942212
0.0934633
0.0920918
0.0914843
0.0899285
0.0888833
0.0880897
0.0860295
0.0845652
0.0833803
0.0802864
0.0784053
0.0747735
0.101119
0.0976654
0.0952894
0.0948988
0.0941965
0.0930521
0.0934214
0.0921676
0.0928915
0.0918967
0.0919208
0.0916363
0.0907561
0.0907263
0.0896507
0.0891652
0.0889922
0.0874641
0.086666
0.0861323
0.0836444
0.0824959
0.0795697
0.0946709
0.0915124
0.0893702
0.0892922
0.0889041
0.088088
0.088915
0.0880064
0.089231
0.088682
0.0892099
0.0894413
0.0891037
0.0896945
0.0891505
0.0892738
0.0897747
0.0888569
0.0888113
0.0890251
0.0872936
0.0870405
0.085056
0.0869888
0.0842297
0.0824066
0.0827106
0.0827085
0.082297
0.0836395
0.0831439
0.0849049
0.0848511
0.0859094
0.0866798
0.086913
0.0881353
0.0881436
0.0888858
0.0900675
0.0897936
0.0905317
0.0915318
0.0906549
0.0914002
0.0905552
0.0776992
0.0754957
0.0741277
0.074928
0.0754311
0.0755472
0.0774928
0.0775109
0.0798564
0.0803575
0.0819702
0.0832929
0.0841076
0.0859446
0.0864988
0.0878337
0.0896584
0.0900145
0.091505
0.0932587
0.0932528
0.0949967
0.0953733
0.0663666
0.0650251
0.0643453
0.0658298
0.0670253
0.0678483
0.0705109
0.0711702
0.0741449
0.0752542
0.0774232
0.0792818
0.080652
0.0830405
0.0840869
0.0859336
0.0882997
0.089201
0.0913256
0.0937023
0.0944636
0.0970647
0.0985657
0.05169
0.0518088
0.0523531
0.054994
0.0573117
0.0592128
0.0628363
0.0643625
0.0680636
0.0698541
0.0725715
0.0749228
0.0767814
0.0796074
0.081024
0.0832414
0.0859909
0.0872734
0.0898407
0.0926226
0.0939106
0.0970833
0.0993742
0.0359147
0.0375878
0.0395919
0.0436554
0.047305
0.050448
0.0551433
0.0575516
0.0619947
0.0643887
0.0675804
0.0703125
0.072511
0.0756442
0.0772524
0.0796822
0.0826617
0.084105
0.0869168
0.0898923
0.0914025
0.0948989
0.0976428
0.212326
0.21194
0.210154
0.208705
0.206376
0.203232
0.200157
0.19736
0.194674
0.192378
0.189961
0.189253
0.186873
0.188965
0.186259
0.190835
0.192975
0.193248
0.19152
0.151426
0.17816
0.207368
0.206935
0.205339
0.204021
0.201908
0.199136
0.196406
0.193792
0.191202
0.188842
0.186287
0.185029
0.182166
0.182758
0.178441
0.179468
0.175409
0.16458
0.144428
0.104795
0.105055
0.202504
0.2021
0.200638
0.199471
0.197544
0.19504
0.192547
0.190015
0.187394
0.184842
0.181888
0.17994
0.176003
0.174843
0.167797
0.164578
0.153862
0.134028
0.106232
0.0682987
0.0778404
0.19861
0.198201
0.196758
0.195643
0.193769
0.191328
0.188865
0.186236
0.183417
0.1805
0.176957
0.174134
0.168892
0.165817
0.156006
0.149137
0.133926
0.110433
0.0830078
0.0529874
0.0687501
0.195242
0.194786
0.193286
0.19214
0.190215
0.187706
0.185137
0.182285
0.17915
0.175748
0.171508
0.167717
0.161162
0.156251
0.144214
0.134747
0.117296
0.0935374
0.0692803
0.0464393
0.0627917
0.192194
0.191652
0.190042
0.188797
0.18674
0.184072
0.181306
0.178147
0.17462
0.170672
0.165708
0.160962
0.15324
0.146768
0.133215
0.122167
0.104077
0.0816219
0.0607771
0.0430148
0.0578718
0.189357
0.188694
0.18693
0.185532
0.18328
0.18039
0.177369
0.173851
0.169899
0.165395
0.159743
0.154135
0.14547
0.137782
0.123374
0.111533
0.0937578
0.0731546
0.0552441
0.0409268
0.0536166
0.186619
0.1858
0.183842
0.182244
0.179752
0.176596
0.173285
0.169388
0.165011
0.159987
0.153735
0.147417
0.138082
0.129556
0.114861
0.102827
0.0859152
0.067265
0.0517257
0.0397129
0.0499455
0.183893
0.182892
0.180718
0.178891
0.176135
0.172698
0.169091
0.164825
0.160059
0.154582
0.147845
0.140978
0.131214
0.122154
0.107542
0.0956409
0.0797526
0.0628309
0.049047
0.0384957
0.0464244
0.181096
0.179892
0.177484
0.175411
0.172377
0.168658
0.164764
0.160158
0.155051
0.149199
0.142091
0.134828
0.124835
0.115475
0.101175
0.0895828
0.0747103
0.0592416
0.0467473
0.0371533
0.0429756
0.178163
0.176741
0.174091
0.171762
0.168453
0.164463
0.160306
0.155397
0.150008
0.14386
0.136489
0.128958
0.118886
0.109389
0.095529
0.0843119
0.0703699
0.0561037
0.0445787
0.0356689
0.0395692
0.175008
0.17335
0.170452
0.167862
0.164282
0.160039
0.155647
0.150484
0.144879
0.138528
0.131013
0.123354
0.113362
0.103894
0.0905909
0.0798212
0.0667612
0.0535442
0.0428166
0.0344285
0.0364513
0.171654
0.169766
0.166637
0.163802
0.15998
0.155522
0.150942
0.145581
0.139825
0.133343
0.12576
0.118047
0.108189
0.0987946
0.0860277
0.0756439
0.0633154
0.050937
0.0408003
0.0327721
0.0332422
0.168011
0.165886
0.162532
0.159461
0.155415
0.150773
0.146039
0.140531
0.134684
0.128145
0.120577
0.112899
0.10326
0.0940203
0.0818174
0.0718306
0.0601779
0.0485479
0.0389297
0.0312079
0.0302036
0.164113
0.16176
0.158204
0.154919
0.150684
0.145896
0.141053
0.135449
0.129564
0.123025
0.115527
0.107929
0.0985348
0.0894673
0.0777985
0.0681639
0.0570985
0.0461108
0.0369221
0.0294391
0.0271565
0.159905
0.157327
0.153585
0.150103
0.145704
0.140804
0.135887
0.130234
0.12436
0.117876
0.110507
0.103048
0.0939453
0.0850929
0.0739599
0.0646744
0.054158
0.043761
0.0349643
0.0276847
0.0242197
0.15549
0.152707
0.14881
0.145161
0.140636
0.135666
0.130714
0.125054
0.119228
0.11283
0.105607
0.0982873
0.0894553
0.080789
0.0701335
0.0611364
0.0510911
0.041206
0.0327391
0.0256298
0.0211956
0.150713
0.147721
0.143679
0.139872
0.135243
0.130224
0.125262
0.11963
0.11389
0.107624
0.100605
0.093485
0.0849828
0.0765645
0.0664226
0.0577479
0.0481874
0.0388178
0.0306945
0.0237653
0.0183873
0.14581
0.142634
0.138483
0.134552
0.129858
0.124833
0.119895
0.114327
0.108699
0.102582
0.0957685
0.088833
0.0806238
0.0724136
0.0627246
0.054315
0.0451756
0.0362587
0.0284278
0.0216402
0.015536
0.140645
0.13729
0.133043
0.129003
0.124264
0.119253
0.114357
0.10888
0.103384
0.0974407
0.0908561
0.0841259
0.0762257
0.0682447
0.0590127
0.0508769
0.0421559
0.033684
0.0261459
0.0195043
0.0127703
0.135279
0.131752
0.127428
0.123293
0.118533
0.113558
0.10872
0.103357
0.0980112
0.0922597
0.0859226
0.079413
0.0718311
0.0640932
0.0553146
0.0474509
0.0391376
0.0310945
0.0238383
0.0173329
0.0101014
0.129904
0.126223
0.121848
0.117643
0.112889
0.107977
0.103216
0.0979883
0.092803
0.0872453
0.0811444
0.0748281
0.0675242
0.0599953
0.0516273
0.0440026
0.0360635
0.0284171
0.0214199
0.0150344
0.00745722
0.124219
0.12038
0.115953
0.111675
0.106933
0.102087
0.0974007
0.092319
0.087301
0.0819543
0.0761168
0.0700293
0.0630427
0.0557717
0.0478447
0.0404893
0.0329409
0.025696
0.0189628
0.0127038
0.00493368
0.118706
0.114726
0.110271
0.105945
0.101242
0.0964829
0.0918863
0.0869688
0.0821217
0.0769805
0.0713864