/*--------------------------------*- C++ -*----------------------------------*\
  =========                 |
  \\      /  F ield         | OpenFOAM: The Open Source CFD Toolbox
   \\    /   O peration     | Website:  https://openfoam.org
    \\  /    A nd           | Version:  6
     \\/     M anipulation  |
\*---------------------------------------------------------------------------*/
FoamFile
{
    version     2.0;
    format      ascii;
    class       surfaceScalarField;
    location    "3200";
    object      phi;
}
// * * * * * * * * * * * * * * * * * * * * * * * * * * * * * * * * * * * * * //

dimensions      [0 3 -1 0 0 0 0];

internalField   nonuniform List<scalar> 
7420
(
1.25203e-06
3.27799e-07
1.21705e-06
3.49789e-08
1.2484e-06
-3.13439e-08
1.31131e-06
-6.29094e-08
1.38387e-06
-7.25607e-08
1.46141e-06
-7.75414e-08
1.51316e-06
-5.17498e-08
1.55855e-06
-4.53885e-08
1.60495e-06
-4.6398e-08
1.61116e-06
-6.21463e-09
1.63678e-06
-2.56231e-08
1.68345e-06
-4.66681e-08
1.73749e-06
-5.40342e-08
1.79596e-06
-5.84779e-08
1.74247e-06
5.34921e-08
1.61513e-06
1.2734e-07
1.43275e-06
1.82378e-07
1.299e-06
1.33752e-07
1.22445e-06
7.45551e-08
1.21869e-06
5.75416e-09
1.31738e-06
-9.86902e-08
1.46521e-06
-1.47831e-07
1.60039e-06
-1.35174e-07
1.66455e-06
-6.4164e-08
1.57353e-06
9.10237e-08
1.38409e-06
1.89441e-07
1.16115e-06
2.22934e-07
9.27485e-07
2.33669e-07
7.39809e-07
1.87675e-07
5.96123e-07
1.43686e-07
4.69997e-07
1.26126e-07
3.6919e-07
1.00806e-07
7.21467e-08
2.97044e-07
4.107e-06
8.62565e-07
3.91739e-06
2.24598e-07
3.91915e-06
-3.31116e-08
4.01401e-06
-1.57762e-07
4.1497e-06
-2.08253e-07
4.3019e-06
-2.2974e-07
4.42412e-06
-1.7397e-07
4.53369e-06
-1.54959e-07
4.63571e-06
-1.48416e-07
4.68543e-06
-5.59421e-08
4.75255e-06
-9.27441e-08
4.84348e-06
-1.37594e-07
4.93709e-06
-1.47642e-07
5.00816e-06
-1.29546e-07
4.91145e-06
1.50193e-07
4.67806e-06
3.60738e-07
4.34589e-06
5.14549e-07
4.06522e-06
4.14416e-07
3.88692e-06
2.52858e-07
3.84632e-06
4.63482e-08
3.98528e-06
-2.3765e-07
4.21291e-06
-3.75455e-07
4.4166e-06
-3.38867e-07
4.49356e-06
-1.41127e-07
4.33002e-06
2.5457e-07
3.9774e-06
5.42054e-07
3.52215e-06
6.78184e-07
3.01585e-06
7.39978e-07
2.55141e-06
6.52108e-07
2.15302e-06
5.42082e-07
1.79681e-06
4.82337e-07
1.49243e-06
4.05184e-07
3.15915e-07
1.24866e-06
7.00488e-06
1.43111e-06
6.71841e-06
5.11071e-07
6.66112e-06
2.41833e-08
6.74096e-06
-2.37604e-07
6.89097e-06
-3.5827e-07
7.07371e-06
-4.12471e-07
7.23563e-06
-3.35891e-07
7.38612e-06
-3.05454e-07
7.52618e-06
-2.88475e-07
7.61484e-06
-1.44602e-07
7.71375e-06
-1.91657e-07
7.82789e-06
-2.51733e-07
7.93375e-06
-2.535e-07
7.99775e-06
-1.93543e-07
7.8831e-06
2.64836e-07
7.6126e-06
6.31236e-07
7.22254e-06
9.04617e-07
6.86663e-06
7.7032e-07
6.61621e-06
5.03283e-07
6.52613e-06
1.36426e-07
6.63837e-06
-3.4989e-07
6.85226e-06
-5.89347e-07
7.03988e-06
-5.26486e-07
7.08875e-06
-1.9e-07
6.88549e-06
4.57838e-07
6.46348e-06
9.64057e-07
5.8976e-06
1.24407e-06
5.24162e-06
1.39596e-06
4.59571e-06
1.29801e-06
4.00147e-06
1.13632e-06
3.4494e-06
1.03441e-06
2.95613e-06
8.98448e-07
7.34815e-07
2.53723e-06
9.82655e-06
1.97931e-06
9.50363e-06
8.33991e-07
9.39981e-06
1.27999e-07
9.45006e-06
-2.87848e-07
9.58955e-06
-4.9776e-07
9.77672e-06
-5.99644e-07
9.95488e-06
-5.14051e-07
1.01272e-05
-4.77808e-07
1.0291e-05
-4.5226e-07
1.04068e-05
-2.60419e-07
1.05271e-05
-3.11946e-07
1.06532e-05
-3.77784e-07
1.07615e-05
-3.6181e-07
1.08182e-05
-2.50253e-07
1.06993e-05
3.83768e-07
1.04237e-05
9.06763e-07
1.00198e-05
1.3086e-06
9.63141e-06
1.15866e-06
9.33347e-06
8.01228e-07
9.19153e-06
2.78357e-07
9.24912e-06
-4.0747e-07
9.40832e-06
-7.48548e-07
9.54321e-06
-6.61382e-07
9.54607e-06
-1.92856e-07
9.31063e-06
6.93272e-07
8.85829e-06
1.4164e-06
8.24762e-06
1.85473e-06
7.52239e-06
2.1212e-06
6.77641e-06
2.04399e-06
6.05496e-06
1.85778e-06
5.35841e-06
1.73095e-06
4.71127e-06
1.54559e-06
1.30992e-06
4.13617e-06
1.25366e-05
2.48855e-06
1.22119e-05
1.15866e-06
1.20822e-05
2.57715e-07
1.21048e-05
-3.10502e-07
1.22247e-05
-6.17597e-07
1.24023e-05
-7.77281e-07
1.25816e-05
-6.93375e-07
1.27619e-05
-6.58072e-07
1.29373e-05
-6.27716e-07
1.30697e-05
-3.92754e-07
1.32026e-05
-4.44844e-07
1.33339e-05
-5.09153e-07
1.34415e-05
-4.69403e-07
1.34932e-05
-3.01922e-07
1.33777e-05
4.99256e-07
1.3112e-05
1.17244e-06
1.27163e-05
1.70435e-06
1.23205e-05
1.55444e-06
1.19939e-05
1.12787e-06
1.18059e-05
4.66385e-07
1.1801e-05
-4.02592e-07
1.18907e-05
-8.38286e-07
1.1959e-05
-7.29684e-07
1.1908e-05
-1.41859e-07
1.16413e-05
9.60022e-07
1.11738e-05
1.88386e-06
1.05514e-05
2.4772e-06
9.80608e-06
2.86646e-06
9.01985e-06
2.83022e-06
8.23232e-06
2.64532e-06
7.44667e-06
2.5166e-06
6.69147e-06
2.30079e-06
2.00728e-06
5.9941e-06
1.51217e-05
2.9534e-06
1.48135e-05
1.46687e-06
1.46748e-05
3.96448e-07
1.46775e-05
-3.1327e-07
1.47772e-05
-7.17215e-07
1.49394e-05
-9.39567e-07
1.51115e-05
-8.65416e-07
1.52905e-05
-8.37048e-07
1.54687e-05
-8.05966e-07
1.56093e-05
-5.33368e-07
1.57483e-05
-5.83775e-07
1.58808e-05
-6.41724e-07
1.59866e-05
-5.7516e-07
1.60354e-05
-3.50686e-07
1.59276e-05
6.06968e-07
1.5679e-05
1.4211e-06
1.53026e-05
2.08073e-06
1.49137e-05
1.94329e-06
1.4572e-05
1.46957e-06
1.43464e-05
6.92006e-07
1.42812e-05
-3.37392e-07
1.42999e-05
-8.56968e-07
1.42995e-05
-7.29267e-07
1.41937e-05
-3.6118e-08
1.38969e-05
1.25688e-06
1.34212e-05
2.35956e-06
1.28036e-05
3.09479e-06
1.2067e-05
3.60308e-06
1.12807e-05
3.61653e-06
1.04745e-05
3.45152e-06
9.64912e-06
3.34194e-06
8.8327e-06
3.11721e-06
2.7864e-06
8.05359e-06
1.75768e-05
3.37367e-06
1.72937e-05
1.74998e-06
1.71575e-05
5.32613e-07
1.71487e-05
-3.04441e-07
1.72314e-05
-7.99941e-07
1.73774e-05
-1.0856e-06
1.75384e-05
-1.02643e-06
1.77108e-05
-1.00945e-06
1.78861e-05
-9.81207e-07
1.80292e-05
-6.76522e-07
1.81696e-05
-7.2415e-07
1.83007e-05
-7.7285e-07
1.84042e-05
-6.78597e-07
1.84515e-05
-3.98033e-07
1.83539e-05
7.04592e-07
1.81256e-05
1.64938e-06
1.7774e-05
2.43232e-06
1.74002e-05
2.31709e-06
1.70531e-05
1.81673e-06
1.67986e-05
9.46499e-07
1.66796e-05
-2.18409e-07
1.66321e-05
-8.09439e-07
1.65669e-05
-6.64127e-07
1.64099e-05
1.2092e-07
1.60859e-05
1.58087e-06
1.56064e-05
2.83908e-06
1.50027e-05
3.69843e-06
1.42914e-05
4.31447e-06
1.35307e-05
4.37717e-06
1.27399e-05
4.24236e-06
1.19145e-05
4.16727e-06
1.10788e-05
3.95291e-06
3.60669e-06
1.02585e-05
1.98998e-05
3.75106e-06
1.96451e-05
2.00463e-06
1.95186e-05
6.59103e-07
1.95051e-05
-2.90908e-07
1.95754e-05
-8.70272e-07
1.97069e-05
-1.21703e-06
1.98561e-05
-1.17566e-06
2.00195e-05
-1.17289e-06
2.01885e-05
-1.15017e-06
2.03306e-05
-8.18638e-07
2.04695e-05
-8.63028e-07
2.05975e-05
-9.00875e-07
2.06984e-05
-7.79442e-07
2.07452e-05
-4.4483e-07
2.06587e-05
7.91025e-07
2.04522e-05
1.8559e-06
2.01279e-05
2.75661e-06
1.97738e-05
2.67117e-06
1.94281e-05
2.16249e-06
1.91526e-05
1.22195e-06
1.89879e-05
-5.36496e-08
1.88817e-05
-7.03281e-07
1.87587e-05
-5.41151e-07
1.85562e-05
3.23432e-07
1.82096e-05
1.92748e-06
1.77304e-05
3.31829e-06
1.71465e-05
4.2823e-06
1.64703e-05
4.99067e-06
1.57516e-05
5.09589e-06
1.49995e-05
4.99448e-06
1.4204e-05
4.9628e-06
1.33834e-05
4.77343e-06
4.43172e-06
1.25584e-05
2.20903e-05
4.08782e-06
2.18647e-05
2.23026e-06
2.17518e-05
7.72052e-07
2.17385e-05
-2.77673e-07
2.18007e-05
-9.32485e-07
2.19202e-05
-1.33651e-06
2.20586e-05
-1.31407e-06
2.22126e-05
-1.3269e-06
2.23739e-05
-1.31147e-06
2.25131e-05
-9.57824e-07
2.26488e-05
-9.98751e-07
2.27728e-05
-1.02487e-06
2.28709e-05
-8.77542e-07
2.29176e-05
-4.9154e-07
2.28428e-05
8.65851e-07
2.26585e-05
2.04025e-06
2.23625e-05
3.05255e-06
2.20308e-05
3.00288e-06
2.16914e-05
2.50192e-06
2.14018e-05
1.51156e-06
2.11993e-05
1.48877e-07
2.10428e-05
-5.46834e-07
2.08699e-05
-3.6827e-07
2.06288e-05
5.64522e-07
2.02651e-05
2.29127e-06
1.97906e-05
3.79275e-06
1.92311e-05
4.84181e-06
1.85966e-05
5.62516e-06
1.79302e-05
5.76231e-06
1.72324e-05
5.69222e-06
1.64881e-05
5.70712e-06
1.57094e-05
5.55213e-06
5.231e-06
1.49101e-05
2.41484e-05
4.38607e-06
2.3951e-05
2.42761e-06
2.38534e-05
8.69709e-07
2.38437e-05
-2.68012e-07
2.39013e-05
-9.90063e-07
2.40116e-05
-1.44682e-06
2.41409e-05
-1.44334e-06
2.42861e-05
-1.47215e-06
2.44396e-05
-1.46496e-06
2.45752e-05
-1.09338e-06
2.4707e-05
-1.1306e-06
2.48266e-05
-1.14446e-06
2.49219e-05
-9.72875e-07
2.49688e-05
-5.3842e-07
2.49057e-05
9.28993e-07
2.47434e-05
2.2025e-06
2.44762e-05
3.31981e-06
2.41684e-05
3.3106e-06
2.3839e-05
2.83135e-06
2.3541e-05
1.8096e-06
2.3308e-05
3.81792e-07
2.31094e-05
-3.48211e-07
2.28946e-05
-1.53467e-07
2.26221e-05
8.3704e-07
2.2247e-05
2.66634e-06
2.1782e-05
4.2578e-06
2.1251e-05
5.3728e-06
2.0663e-05
6.21316e-06
2.00557e-05
6.36956e-06
1.94228e-05
6.32516e-06
1.87446e-05
6.38529e-06
1.80275e-05
6.26928e-06
5.98049e-06
1.7278e-05
2.60742e-05
4.64779e-06
2.59038e-05
2.59802e-06
2.58219e-05
9.51636e-07
2.58177e-05
-2.63836e-07
2.58732e-05
-1.04556e-06
2.59767e-05
-1.55038e-06
2.60988e-05
-1.56536e-06
2.62364e-05
-1.60981e-06
2.63827e-05
-1.6112e-06
2.65146e-05
-1.22535e-06
2.66425e-05
-1.2585e-06
2.67577e-05
-1.25966e-06
2.68504e-05
-1.06555e-06
2.68977e-05
-5.85664e-07
2.68461e-05
9.80513e-07
2.67057e-05
2.34292e-06
2.64671e-05
3.55841e-06
2.61844e-05
3.59335e-06
2.58678e-05
3.14797e-06
2.5566e-05
2.11133e-06
2.53093e-05
6.38554e-07
2.50759e-05
-1.14879e-07
2.48267e-05
9.57226e-08
2.45297e-05
1.13406e-06
2.41492e-05
3.04684e-06
2.36983e-05
4.70868e-06
2.31998e-05
5.87133e-06
2.26621e-05
6.75084e-06
2.21188e-05
6.91288e-06
2.15576e-05
6.88636e-06
2.09558e-05
6.98714e-06
2.03143e-05
6.91077e-06
6.66201e-06
1.96328e-05
2.78679e-05
4.87478e-06
2.77229e-05
2.74301e-06
2.76564e-05
1.01815e-06
2.76587e-05
-2.66072e-07
2.77138e-05
-1.10067e-06
2.78125e-05
-1.6491e-06
2.79289e-05
-1.6818e-06
2.80603e-05
-1.7412e-06
2.82002e-05
-1.75111e-06
2.83291e-05
-1.35418e-06
2.84533e-05
-1.38274e-06
2.85644e-05
-1.37076e-06
2.86547e-05
-1.15581e-06
2.87025e-05
-6.33475e-07
2.86625e-05
1.0205e-06
2.85436e-05
2.46185e-06
2.83335e-05
3.7685e-06
2.80764e-05
3.85047e-06
2.77748e-05
3.44955e-06
2.74734e-05
2.41273e-06
2.71985e-05
9.13447e-07
2.69371e-05
1.46479e-07
2.66604e-05
3.72422e-07
2.63453e-05
1.44916e-06
2.5965e-05
3.42721e-06
2.55328e-05
5.14083e-06
2.50704e-05
6.3337e-06
2.45863e-05
7.23497e-06
2.41103e-05
7.38886e-06
2.36255e-05
7.37119e-06
2.31068e-05
7.50587e-06
2.25507e-05
7.46687e-06
7.26241e-06
2.19503e-05
2.95298e-05
5.06861e-06
2.94087e-05
2.8641e-06
2.93569e-05
1.06996e-06
2.93658e-05
-2.74973e-07
2.94215e-05
-1.15639e-06
2.95167e-05
-1.74433e-06
2.96289e-05
-1.79401e-06
2.97552e-05
-1.86751e-06
2.98897e-05
-1.88561e-06
3.0016e-05
-1.48048e-06
3.01371e-05
-1.50379e-06
3.02445e-05
-1.47818e-06
3.03326e-05
-1.24395e-06
3.03812e-05
-6.8208e-07
3.03527e-05
1.04905e-06
3.02549e-05
2.5596e-06
3.00731e-05
3.95033e-06
2.98421e-05
4.08151e-06
2.95574e-05
3.73426e-06
2.92597e-05
2.71044e-06
2.89716e-05
1.20149e-06
2.86882e-05
4.29936e-07
2.83901e-05
6.70464e-07
2.80628e-05
1.77648e-06
2.76877e-05
3.80236e-06
2.72784e-05
5.55005e-06
2.68555e-05
6.7566e-06
2.64276e-05
7.66289e-06
2.60214e-05
7.79507e-06
2.5616e-05
7.77665e-06
2.51847e-05
7.93712e-06
2.47205e-05
7.93111e-06
7.77245e-06
2.42104e-05
3.10599e-05
5.23074e-06
3.09612e-05
2.96274e-06
3.09232e-05
1.10799e-06
3.09386e-05
-2.90355e-07
3.09954e-05
-1.21317e-06
3.10879e-05
-1.83688e-06
3.11968e-05
-1.90294e-06
3.1319e-05
-1.98967e-06
3.14489e-05
-2.01551e-06
3.15732e-05
-1.6048e-06
3.16916e-05
-1.62213e-06
3.17957e-05
-1.58235e-06
3.18821e-05
-1.33028e-06
3.19317e-05
-7.31711e-07
3.19145e-05
1.06622e-06
3.18376e-05
2.63654e-06
3.16838e-05
4.10416e-06
3.14791e-05
4.28616e-06
3.12128e-05
4.00054e-06
3.09217e-05
3.00152e-06
3.06249e-05
1.4983e-06
3.03246e-05
7.30245e-07
3.00107e-05
9.8435e-07
2.96764e-05
2.11081e-06
2.9311e-05
4.16774e-06
2.89284e-05
5.93261e-06
2.85479e-05
7.13712e-06
2.81783e-05
8.03246e-06
2.78435e-05
8.12989e-06
2.75192e-05
8.101e-06
2.71779e-05
8.27837e-06
2.68095e-05
8.29957e-06
8.18615e-06
2.63958e-05
3.24583e-05
5.36257e-06
3.23807e-05
3.04028e-06
3.23555e-05
1.13323e-06
3.23769e-05
-3.11757e-07
3.24348e-05
-1.27107e-06
3.25251e-05
-1.92718e-06
3.26313e-05
-2.00912e-06
3.27499e-05
-2.10827e-06
3.28758e-05
-2.14142e-06
3.29985e-05
-1.72752e-06
3.31145e-05
-1.73812e-06
3.32158e-05
-1.68365e-06
3.33006e-05
-1.41507e-06
3.33515e-05
-7.82574e-07
3.33456e-05
1.07211e-06
3.32891e-05
2.69299e-06
3.3163e-05
4.23027e-06
3.2985e-05
4.46419e-06
3.27384e-05
4.24709e-06
3.24565e-05
3.28344e-06
3.21548e-05
1.80002e-06
3.18423e-05
1.04273e-06
3.15175e-05
1.30918e-06
3.11808e-05
2.44752e-06
3.08291e-05
4.51939e-06
3.04764e-05
6.28532e-06
3.01406e-05
7.47292e-06
2.98309e-05
8.34216e-06
2.95684e-05
8.39246e-06
2.93258e-05
8.34352e-06
2.90756e-05
8.52857e-06
2.88049e-05
8.5703e-06
8.50001e-06
2.84911e-05
3.37251e-05
5.46536e-06
3.36674e-05
3.09799e-06
3.3654e-05
1.14669e-06
3.36807e-05
-3.38554e-07
3.37395e-05
-1.32986e-06
3.38276e-05
-2.01527e-06
3.39313e-05
-2.11276e-06
3.40466e-05
-2.22362e-06
3.41688e-05
-2.26362e-06
3.42901e-05
-1.84884e-06
3.4404e-05
-1.85199e-06
3.45027e-05
-1.78233e-06
3.45861e-05
-1.49852e-06
3.46384e-05
-8.34811e-07
3.46436e-05
1.06686e-06
3.46072e-05
2.72937e-06
3.45085e-05
4.32904e-06
3.43572e-05
4.6155e-06
3.41315e-05
4.47274e-06
3.3861e-05
3.55394e-06
3.35579e-05
2.10314e-06
3.32374e-05
1.36318e-06
3.29061e-05
1.64057e-06
3.25711e-05
2.78249e-06
3.22366e-05
4.85386e-06
3.19164e-05
6.60553e-06
3.16271e-05
7.76219e-06
3.13782e-05
8.59105e-06
3.11881e-05
8.58262e-06
3.10272e-05
8.50442e-06
3.08679e-05
8.68787e-06
3.06952e-05
8.74295e-06
8.71263e-06
3.04826e-05
3.48604e-05
5.54035e-06
3.48214e-05
3.13706e-06
3.48187e-05
1.14936e-06
3.48502e-05
-3.70027e-07
3.49094e-05
-1.38909e-06
3.49951e-05
-2.10094e-06
3.5096e-05
-2.21374e-06
3.52081e-05
-2.33568e-06
3.53267e-05
-2.38217e-06
3.54465e-05
-1.96869e-06
3.55583e-05
-1.96374e-06
3.56544e-05
-1.87849e-06
3.57366e-05
-1.58066e-06
3.57902e-05
-8.88464e-07
3.58064e-05
1.0507e-06
3.57896e-05
2.74612e-06
3.57178e-05
4.40089e-06
3.55932e-05
4.74006e-06
3.53894e-05
4.67651e-06
3.51324e-05
3.81099e-06
3.4831e-05
2.40449e-06
3.45065e-05
1.68776e-06
3.41725e-05
1.97456e-06
3.38429e-05
3.11209e-06
3.35285e-05
5.16823e-06
3.32429e-05
6.89113e-06
3.30014e-05
8.00369e-06
3.28136e-05
8.77882e-06
3.26953e-05
8.70096e-06
3.2615e-05
8.58477e-06
3.25453e-05
8.7575e-06
3.24697e-05
8.81856e-06
8.82424e-06
3.23581e-05
3.58642e-05
5.58878e-06
3.58427e-05
3.1586e-06
3.58498e-05
1.14222e-06
3.58852e-05
-4.05403e-07
3.59443e-05
-1.44821e-06
3.60271e-05
-2.18378e-06
3.61251e-05
-2.3117e-06
3.62336e-05
-2.4442e-06
3.63483e-05
-2.49684e-06
3.64663e-05
-2.08674e-06
3.65758e-05
-2.07317e-06
3.66693e-05
-1.97204e-06
3.67501e-05
-1.6614e-06
3.6805e-05
-9.43454e-07
3.68318e-05
1.02395e-06
3.68341e-05
2.74383e-06
3.67886e-05
4.44635e-06
3.66907e-05
4.83796e-06
3.65097e-05
4.85753e-06
3.62679e-05
4.05274e-06
3.59713e-05
2.70115e-06
3.56461e-05
2.01293e-06
3.53131e-05
2.30752e-06
3.49922e-05
3.43307e-06
3.47004e-05
5.46003e-06
3.4451e-05
7.14051e-06
3.42579e-05
8.19674e-06
3.4131e-05
8.90576e-06
3.40832e-05
8.74873e-06
3.40816e-05
8.58643e-06
3.40994e-05
8.73968e-06
3.41186e-05
8.79937e-06
8.83665e-06
3.41062e-05
3.67365e-05
5.6118e-06
3.67314e-05
3.16369e-06
3.67475e-05
1.12619e-06
3.6786e-05
-4.43882e-07
3.68443e-05
-1.50654e-06
3.69237e-05
-2.2632e-06
3.70181e-05
-2.40609e-06
3.71225e-05
-2.54865e-06
3.72329e-05
-2.60718e-06
3.73486e-05
-2.20246e-06
3.74553e-05
-2.17983e-06
3.75459e-05
-2.06268e-06
3.7625e-05
-1.74047e-06
3.76811e-05
-9.9956e-07
3.7718e-05
9.87076e-07
3.77386e-05
2.72318e-06
3.77189e-05
4.46608e-06
3.76474e-05
4.90943e-06
3.74899e-05
5.01508e-06
3.72651e-05
4.27754e-06
3.69758e-05
2.99038e-06
3.66534e-05
2.33542e-06
3.63247e-05
2.63613e-06
3.60153e-05
3.7425e-06
3.57482e-05
5.72717e-06
3.55362e-05
7.35251e-06
3.53918e-05
8.34115e-06
3.53248e-05
8.97277e-06
3.53456e-05
8.72786e-06
3.542e-05
8.51202e-06
3.55222e-05
8.63749e-06
3.5633e-05
8.68863e-06
8.75281e-06
3.57168e-05
3.74774e-05
5.61059e-06
3.74877e-05
3.15336e-06
3.75117e-05
1.10219e-06
3.75525e-05
-4.84653e-07
3.76093e-05
-1.56336e-06
3.76846e-05
-2.33851e-06
3.77747e-05
-2.49618e-06
3.78744e-05
-2.64834e-06
3.79797e-05
-2.71251e-06
3.80924e-05
-2.31509e-06
3.81957e-05
-2.28312e-06
3.82829e-05
-2.14994e-06
3.83599e-05
-1.81744e-06
3.84168e-05
-1.05642e-06
3.84632e-05
9.4067e-07
3.85014e-05
2.68497e-06
3.85066e-05
4.46084e-06
3.84612e-05
4.95479e-06
3.83277e-05
5.14857e-06
3.81214e-05
4.48386e-06
3.78422e-05
3.26962e-06
3.75255e-05
2.65211e-06
3.72043e-05
2.95729e-06
3.69091e-05
4.03774e-06
3.66683e-05
5.96791e-06
3.64945e-05
7.52638e-06
3.63984e-05
8.4372e-06
3.63899e-05
8.98125e-06
3.64769e-05
8.64089e-06
3.66241e-05
8.36488e-06
3.68067e-05
8.45485e-06
3.70047e-05
8.49063e-06
8.57687e-06
3.71806e-05
3.80868e-05
5.58631e-06
3.81115e-05
3.12863e-06
3.81426e-05
1.07111e-06
3.81848e-05
-5.26895e-07
3.82394e-05
-1.6179e-06
3.83098e-05
-2.40895e-06
3.83948e-05
-2.58113e-06
3.84888e-05
-2.74243e-06
3.85883e-05
-2.81201e-06
3.8697e-05
-2.4237e-06
3.87961e-05
-2.38223e-06
3.88793e-05
-2.23319e-06
3.89536e-05
-1.89172e-06
3.90107e-05
-1.11353e-06
3.90659e-05
8.85462e-07
3.91207e-05
2.63016e-06
3.915e-05
4.43154e-06
3.91303e-05
4.97452e-06
3.90213e-05
5.25755e-06
3.88348e-05
4.67032e-06
3.8568e-05
3.53645e-06
3.82601e-05
2.96007e-06
3.79493e-05
3.26808e-06
3.76706e-05
4.3164e-06
3.74577e-05
6.1808e-06
3.73224e-05
7.66172e-06
3.7274e-05
8.48562e-06
3.73221e-05
8.93311e-06
3.74721e-05
8.49093e-06
3.7688e-05
8.14897e-06
3.79464e-05
8.19643e-06
3.82265e-05
8.21048e-06
8.314e-06
3.84894e-05
3.85648e-05
5.5401e-06
3.86029e-05
3.09048e-06
3.86402e-05
1.03383e-06
3.86831e-05
-5.69785e-07
3.87345e-05
-1.66933e-06
3.87992e-05
-2.47365e-06
3.88781e-05
-2.66e-06
3.89656e-05
-2.82994e-06
3.90583e-05
-2.9047e-06
3.91618e-05
-2.52719e-06
3.92557e-05
-2.47618e-06
3.93342e-05
-2.31164e-06
3.9405e-05
-1.96258e-06
3.94617e-05
-1.17024e-06
3.95249e-05
8.22309e-07
3.95952e-05
2.55982e-06
3.96475e-05
4.37923e-06
3.96529e-05
4.96921e-06
3.95687e-05
5.34165e-06
3.94034e-05
4.83563e-06
3.91513e-05
3.78855e-06
3.88549e-05
3.25648e-06
3.85572e-05
3.56576e-06
3.82974e-05
4.57626e-06
3.81135e-05
6.36466e-06
3.80168e-05
7.75848e-06
3.80149e-05
8.48748e-06
3.81173e-05
8.83072e-06
3.83266e-05
8.28159e-06
3.86067e-05
7.86886e-06
3.89356e-05
7.86758e-06
3.9292e-05
7.8541e-06
7.97017e-06
3.96358e-05
3.89113e-05
5.47311e-06
3.89618e-05
3.0399e-06
3.90045e-05
9.91228e-07
3.90472e-05
-6.12496e-07
3.90947e-05
-1.71683e-06
3.91528e-05
-2.53173e-06
3.92245e-05
-2.73177e-06
3.93044e-05
-2.90981e-06
3.93892e-05
-2.98948e-06
3.94863e-05
-2.62435e-06
3.9574e-05
-2.56388e-06
3.96468e-05
-2.38435e-06
3.97133e-05
-2.02917e-06
3.97689e-05
-1.22581e-06
3.9839e-05
7.5219e-07
3.99237e-05
2.47515e-06
3.99979e-05
4.30506e-06
4.00275e-05
4.93956e-06
3.99685e-05
5.40065e-06
3.98255e-05
4.97864e-06
3.95903e-05
4.02371e-06
3.93082e-05
3.53863e-06
3.90263e-05
3.84768e-06
3.87873e-05
4.81526e-06
3.86334e-05
6.51851e-06
3.85751e-05
7.81683e-06
3.86183e-05
8.44422e-06
3.87722e-05
8.67683e-06
3.90368e-05
8.01698e-06
3.9376e-05
7.52966e-06
3.97693e-05
7.47426e-06
4.01953e-05
7.42814e-06
7.55232e-06
4.06131e-05
3.91263e-05
5.38649e-06
3.91884e-05
2.97786e-06
3.92355e-05
9.44155e-07
3.92772e-05
-6.54197e-07
3.93199e-05
-1.75955e-06
3.93704e-05
-2.58226e-06
3.9434e-05
-2.79537e-06
3.95051e-05
-2.98089e-06
3.95808e-05
-3.06519e-06
3.96703e-05
-2.71385e-06
3.97505e-05
-2.64413e-06
3.98165e-05
-2.4503e-06
3.98778e-05
-2.09051e-06
3.99314e-05
-1.27938e-06
4.00074e-05
6.76181e-07
4.01051e-05
2.37743e-06
4.01999e-05
4.21029e-06
4.02531e-05
4.88639e-06
4.02193e-05
5.43441e-06
4.00997e-05
5.09827e-06
3.98836e-05
4.23982e-06
3.96183e-05
3.8039e-06
3.93547e-05
4.11132e-06
3.91384e-05
5.0315e-06
3.90154e-05
6.64156e-06
3.8995e-05
7.83723e-06
3.90817e-05
8.35754e-06
3.92839e-05
8.47455e-06
3.95993e-05
7.70159e-06
3.99921e-05
7.13693e-06
4.04433e-05
7.02299e-06
4.09317e-05
6.93983e-06
7.06794e-06
4.1416e-05
3.921e-05
5.28138e-06
3.92825e-05
2.90533e-06
3.93332e-05
8.93476e-07
3.9373e-05
-6.94051e-07
3.94101e-05
-1.79661e-06
3.94521e-05
-2.62426e-06
3.95064e-05
-2.84967e-06
3.95675e-05
-3.04197e-06
3.96329e-05
-3.13057e-06
3.97133e-05
-2.79429e-06
3.97848e-05
-2.71563e-06
3.98429e-05
-2.50836e-06
3.98979e-05
-2.14558e-06
3.99486e-05
-1.33001e-06
4.00293e-05
5.9544e-07
4.01387e-05
2.26805e-06
4.02527e-05
4.09625e-06
4.03285e-05
4.81057e-06
4.03201e-05
5.44286e-06
4.02248e-05
5.19352e-06
4.00299e-05
4.4348e-06
3.9784e-05
4.04973e-06
3.95411e-05
4.35424e-06
3.93494e-05
5.22317e-06
3.92578e-05
6.73317e-06
3.92748e-05
7.8203e-06
3.94029e-05
8.22941e-06
3.96501e-05
8.2273e-06
4.00115e-05
7.34028e-06
4.04517e-05
6.69666e-06
4.0954e-05
6.52076e-06
4.14968e-05
6.39698e-06
6.52523e-06
4.20395e-05
3.91622e-05
5.15892e-06
3.92442e-05
2.82329e-06
3.92976e-05
8.40053e-07
3.93348e-05
-7.31219e-07
3.93653e-05
-1.82713e-06
3.93978e-05
-2.65677e-06
3.94417e-05
-2.89354e-06
3.94915e-05
-3.09181e-06
3.95453e-05
-3.18431e-06
3.96152e-05
-2.86422e-06
3.96766e-05
-2.77705e-06
3.97256e-05
-2.55737e-06
3.97733e-05
-2.19325e-06
3.982e-05
-1.37672e-06
3.99042e-05
5.1119e-07
4.00239e-05
2.14845e-06
4.01557e-05
3.96438e-06
4.02532e-05
4.71308e-06
4.02701e-05
5.42602e-06
4.02001e-05
5.26344e-06
4.00283e-05
4.60666e-06
3.98044e-05
4.27362e-06
3.95846e-05
4.57405e-06
3.94192e-05
5.38855e-06
3.93595e-05
6.79284e-06
3.9413e-05
7.76686e-06
3.95804e-05
8.062e-06
3.98689e-05
7.93875e-06
4.0271e-05
6.9382e-06
4.07525e-05
6.21518e-06
4.12983e-05
5.97496e-06
4.18874e-05
5.80789e-06
5.93294e-06
4.24797e-05
3.89829e-05
5.02029e-06
3.90735e-05
2.73271e-06
3.91288e-05
7.84751e-07
3.91624e-05
-7.64859e-07
3.91856e-05
-1.85024e-06
3.92076e-05
-2.67877e-06
3.92398e-05
-2.9258e-06
3.92771e-05
-3.12914e-06
3.93179e-05
-3.22508e-06
3.93758e-05
-2.92214e-06
3.94258e-05
-2.82698e-06
3.94645e-05
-2.59609e-06
3.95036e-05
-2.23238e-06
3.95454e-05
-1.41846e-06
3.96319e-05
4.24689e-07
3.97602e-05
2.02011e-06
3.99085e-05
3.81612e-06
4.00266e-05
4.59491e-06
4.00687e-05
5.38394e-06
4.0025e-05
5.30713e-06
3.98783e-05
4.75342e-06
3.96788e-05
4.4731e-06
3.94844e-05
4.76843e-06
3.93469e-05
5.52601e-06
3.93196e-05
6.82017e-06
3.94086e-05
7.67787e-06
3.96129e-05
7.85768e-06
3.99389e-05
7.61279e-06
4.03763e-05
6.50077e-06
4.08924e-05
5.69912e-06
4.1474e-05
5.39337e-06
4.21006e-05
5.18125e-06
5.30026e-06
4.27333e-05
3.86722e-05
4.86661e-06
3.87704e-05
2.63456e-06
3.88267e-05
7.28426e-07
3.8856e-05
-7.94133e-07
3.88708e-05
-1.86504e-06
3.88813e-05
-2.68928e-06
3.89008e-05
-2.94527e-06
3.89243e-05
-3.15269e-06
3.89508e-05
-3.25154e-06
3.89952e-05
-2.96654e-06
3.90322e-05
-2.86401e-06
3.90594e-05
-2.62329e-06
3.90888e-05
-2.26182e-06
3.91246e-05
-1.45419e-06
3.9212e-05
3.37223e-07
3.93476e-05
1.88454e-06
3.95108e-05
3.65296e-06
3.96486e-05
4.45708e-06
3.97158e-05
5.31667e-06
3.96993e-05
5.32372e-06
3.95795e-05
4.87313e-06
3.94069e-05
4.64575e-06
3.92402e-05
4.93509e-06
3.91323e-05
5.63396e-06
3.91376e-05
6.81485e-06
3.92611e-05
7.5544e-06
3.94998e-05
7.61896e-06
3.98591e-05
7.25351e-06
4.03262e-05
6.03365e-06
4.08699e-05
5.1554e-06
4.14792e-05
4.78404e-06
4.21344e-05
4.52612e-06
4.63681e-06
4.27978e-05
3.82301e-05
4.699e-06
3.83348e-05
2.5298e-06
3.83913e-05
6.71934e-07
3.84154e-05
-8.1821e-07
3.8421e-05
-1.87066e-06
3.8419e-05
-2.68732e-06
3.84246e-05
-2.95081e-06
3.84331e-05
-3.16118e-06
3.84439e-05
-3.26235e-06
3.84733e-05
-2.99591e-06
3.8496e-05
-2.88675e-06
3.85104e-05
-2.63773e-06
3.8529e-05
-2.28039e-06
3.85577e-05
-1.48286e-06
3.86448e-05
2.5007e-07
3.87861e-05
1.74325e-06
3.89627e-05
3.4764e-06
3.91191e-05
4.30063e-06
3.92115e-05
5.22432e-06
3.92229e-05
5.31235e-06
3.91322e-05
4.96385e-06
3.89888e-05
4.78913e-06
3.88521e-05
5.07177e-06
3.87752e-05
5.71088e-06
3.88134e-05
6.77666e-06
3.89701e-05
7.39763e-06
3.92406e-05
7.34848e-06
3.9629e-05
6.86514e-06
4.012e-05
5.54264e-06
4.06843e-05
4.59111e-06
4.1313e-05
4.15528e-06
4.19873e-05
3.85185e-06
3.95253e-06
4.26716e-05
3.76565e-05
4.51871e-06
3.77669e-05
2.41943e-06
3.78227e-05
6.16131e-07
3.78407e-05
-8.36272e-07
3.78363e-05
-1.86625e-06
3.78209e-05
-2.67193e-06
3.78114e-05
-2.94129e-06
3.78036e-05
-3.15339e-06
3.77975e-05
-3.25621e-06
3.78103e-05
-3.00878e-06
3.78174e-05
-2.8938e-06
3.78179e-05
-2.63819e-06
3.78244e-05
-2.28695e-06
3.7845e-05
-1.50344e-06
3.79306e-05
1.64499e-07
3.80761e-05
1.59773e-06
3.82646e-05
3.2879e-06
3.84387e-05
4.12658e-06
3.8556e-05
5.10696e-06
3.85962e-05
5.27213e-06
3.85364e-05
5.02365e-06
3.84247e-05
4.90084e-06
3.83203e-05
5.17622e-06
3.82759e-05
5.75527e-06
3.83471e-05
6.70541e-06
3.8536e-05
7.20882e-06
3.88355e-05
7.04898e-06
3.92486e-05
6.45205e-06
3.97575e-05
5.0337e-06
4.03351e-05
4.01353e-06
4.09747e-05
3.51561e-06
4.16586e-05
3.16803e-06
3.25766e-06
4.23534e-05
3.69515e-05
4.32677e-06
3.70665e-05
2.30437e-06
3.71208e-05
5.61837e-07
3.71321e-05
-8.4754e-07
3.71168e-05
-1.85101e-06
3.70871e-05
-2.64222e-06
3.70614e-05
-2.91562e-06
3.70362e-05
-3.12813e-06
3.70118e-05
-3.23187e-06
3.70068e-05
-3.00372e-06
3.69968e-05
-2.88384e-06
3.69821e-05
-2.6235e-06
3.69756e-05
-2.28042e-06
3.69871e-05
-1.51495e-06
3.70699e-05
8.17457e-08
3.72181e-05
1.44945e-06
3.74171e-05
3.08894e-06
3.76078e-05
3.93592e-06
3.77501e-05
4.96464e-06
3.782e-05
5.20218e-06
3.77931e-05
5.05057e-06
3.77155e-05
4.97845e-06
3.76455e-05
5.24622e-06
3.76351e-05
5.76565e-06
3.77395e-05
6.60098e-06
3.79591e-05
6.98929e-06
3.82848e-05
6.72327e-06
3.87181e-05
6.0187e-06
3.92389e-05
4.51291e-06
3.98224e-05
3.43007e-06
4.04643e-05
2.87371e-06
4.11478e-05
2.48446e-06
2.56267e-06
4.18428e-05
3.6115e-05
4.12446e-06
3.62338e-05
2.18561e-06
3.62858e-05
5.09849e-07
3.62895e-05
-8.51283e-07
3.62627e-05
-1.82419e-06
3.62178e-05
-2.59734e-06
3.6175e-05
-2.87282e-06
3.61312e-05
-3.0843e-06
3.60875e-05
-3.18815e-06
3.60631e-05
-2.97936e-06
3.60349e-05
-2.8556e-06
3.60039e-05
-2.59256e-06
3.59833e-05
-2.25974e-06
3.59848e-05
-1.51644e-06
3.60635e-05
3.0067e-09
3.62131e-05
1.29984e-06
3.64211e-05
2.88093e-06
3.66274e-05
3.72964e-06
3.67946e-05
4.79743e-06
3.68952e-05
5.10162e-06
3.69031e-05
5.04267e-06
3.6862e-05
5.01955e-06
3.68286e-05
5.27955e-06
3.68537e-05
5.74057e-06
3.69914e-05
6.46326e-06
3.72403e-05
6.7404e-06
3.75893e-05
6.37425e-06
3.80384e-05
5.56961e-06
3.85649e-05
3.98644e-06
3.91467e-05
2.84825e-06
3.9782e-05
2.2384e-06
4.04554e-05
1.81107e-06
1.87822e-06
4.11399e-05
3.51471e-05
3.9128e-06
3.52687e-05
2.06401e-06
3.53177e-05
4.60876e-07
3.53133e-05
-8.46863e-07
3.52742e-05
-1.78516e-06
3.52135e-05
-2.53659e-06
3.51527e-05
-2.812e-06
3.50893e-05
-3.02091e-06
3.50251e-05
-3.12398e-06
3.49802e-05
-2.93448e-06
3.49325e-05
-2.8079e-06
3.48843e-05
-2.54434e-06
3.48485e-05
-2.22396e-06
3.48391e-05
-1.50705e-06
3.49127e-05
-7.05698e-08
3.50622e-05
1.15031e-06
3.52779e-05
2.6653e-06
3.54988e-05
3.50869e-06
3.56909e-05
4.60534e-06
3.5823e-05
4.96955e-06
3.58676e-05
4.99801e-06
3.58654e-05
5.02175e-06
3.5871e-05
5.27399e-06
3.5933e-05
5.67862e-06
3.6104e-05
6.29218e-06
3.63809e-05
6.46357e-06
3.67503e-05
6.00485e-06
3.72105e-05
5.10938e-06
3.77364e-05
3.46051e-06
3.8309e-05
2.27569e-06
3.89288e-05
1.6186e-06
3.95819e-05
1.15796e-06
1.21514e-06
4.0245e-05
3.40477e-05
3.69289e-06
3.41714e-05
1.94039e-06
3.42167e-05
4.15556e-07
3.42036e-05
-8.33751e-07
3.41518e-05
-1.73341e-06
3.40746e-05
-2.45939e-06
3.3995e-05
-2.73243e-06
3.39112e-05
-2.93712e-06
3.38257e-05
-3.03844e-06
3.37592e-05
-2.86793e-06
3.3691e-05
-2.73972e-06
3.36246e-05
-2.47793e-06
3.35728e-05
-2.1722e-06
3.35517e-05
-1.48597e-06
3.3619e-05
-1.37882e-07
3.37671e-05
1.00223e-06
3.3989e-05
2.44344e-06
3.42236e-05
3.27403e-06
3.44405e-05
4.38846e-06
3.4605e-05
4.80508e-06
3.46883e-05
4.91466e-06
3.47274e-05
4.98266e-06
3.47741e-05
5.22738e-06
3.48743e-05
5.57837e-06
3.50788e-05
6.08771e-06
3.53821e-05
6.16021e-06
3.5769e-05
5.61802e-06
3.62357e-05
4.64264e-06
3.67548e-05
2.94141e-06
3.73104e-05
1.72005e-06
3.79057e-05
1.02332e-06
3.85284e-05
5.35314e-07
5.84348e-07
3.91591e-05
3.28171e-05
3.46598e-06
3.29419e-05
1.81561e-06
3.2983e-05
3.74424e-07
3.29608e-05
-8.11567e-07
3.2896e-05
-1.66859e-06
3.2802e-05
-2.36534e-06
3.27031e-05
-2.63355e-06
3.25982e-05
-2.83226e-06
3.24906e-05
-2.93077e-06
3.24014e-05
-2.77878e-06
3.23118e-05
-2.65015e-06
3.22265e-05
-2.39256e-06
3.2158e-05
-2.10371e-06
3.21245e-05
-1.45247e-06
3.21845e-05
-1.97873e-07
3.23298e-05
8.5695e-07
3.25564e-05
2.21677e-06
3.28038e-05
3.02666e-06
3.30454e-05
4.14688e-06
3.3243e-05
4.6074e-06
3.3367e-05
4.79075e-06
3.34497e-05
4.89995e-06
3.35395e-05
5.13756e-06
3.36794e-05
5.43847e-06
3.39173e-05
5.84981e-06
3.42457e-05
5.8318e-06
3.4647e-05
5.21676e-06
3.51155e-05
4.17408e-06
3.56215e-05
2.43547e-06
3.61524e-05
1.18908e-06
3.67141e-05
4.61639e-07
3.7296e-05
-4.66109e-08
-3.15036e-09
3.78835e-05
3.1455e-05
3.23295e-06
3.15804e-05
1.69023e-06
3.1617e-05
3.37789e-07
3.15856e-05
-7.80161e-07
3.15077e-05
-1.59062e-06
3.13966e-05
-2.25428e-06
3.12781e-05
-2.51504e-06
3.11517e-05
-2.70589e-06
3.10214e-05
-2.80045e-06
3.09089e-05
-2.66627e-06
3.07972e-05
-2.53848e-06
3.06923e-05
-2.28761e-06
3.06065e-05
-2.01789e-06
3.05599e-05
-1.40595e-06
3.06116e-05
-2.49523e-07
3.07527e-05
7.15851e-07
3.09827e-05
1.98679e-06
3.12416e-05
2.7677e-06
3.15076e-05
3.88087e-06
3.17392e-05
4.37585e-06
3.19054e-05
4.62457e-06
3.20339e-05
4.7714e-06
3.2169e-05
5.00248e-06
3.23499e-05
5.25758e-06
3.26212e-05
5.57849e-06
3.29732e-05
5.4798e-06
3.33859e-05
4.80408e-06
3.38516e-05
3.70838e-06
3.4338e-05
1.94908e-06
3.48365e-05
6.90571e-07
3.53554e-05
-5.72924e-08
3.58863e-05
-5.77495e-07
-5.36302e-07
3.64195e-05
2.99617e-05
2.99474e-06
3.00872e-05
1.56471e-06
3.01192e-05
3.05745e-07
3.00787e-05
-7.39648e-07
2.99878e-05
-1.49967e-06
2.98598e-05
-2.12634e-06
2.97216e-05
-2.37684e-06
2.95736e-05
-2.55782e-06
2.94203e-05
-2.64718e-06
2.92839e-05
-2.52991e-06
2.91497e-05
-2.40428e-06
2.90248e-05
-2.1627e-06
2.89212e-05
-1.91428e-06
2.88611e-05
-1.34587e-06
2.89034e-05
-2.91836e-07
2.90389e-05
5.80363e-07
2.92706e-05
1.75512e-06
2.95399e-05
2.49845e-06
2.98298e-05
3.59092e-06
3.00957e-05
4.10998e-06
3.03056e-05
4.41459e-06
3.04821e-05
4.59497e-06
3.06644e-05
4.8202e-06
3.08875e-05
5.03445e-06
3.11922e-05
5.27379e-06
3.15663e-05