/*--------------------------------*- C++ -*----------------------------------*\
  =========                 |
  \\      /  F ield         | OpenFOAM: The Open Source CFD Toolbox
   \\    /   O peration     | Website:  https://openfoam.org
    \\  /    A nd           | Version:  6
     \\/     M anipulation  |
\*---------------------------------------------------------------------------*/
FoamFile
{
    version     2.0;
    format      ascii;
    class       volScalarField;
    location    "30";
    object      T;
}
// * * * * * * * * * * * * * * * * * * * * * * * * * * * * * * * * * * * * * //

dimensions      [0 0 0 1 0 0 0];

internalField   nonuniform List<scalar> 
3773
(
0.424301
0.171596
0.106811
0.0818467
0.0689397
0.061081
0.0555215
0.0512512
0.048061
0.0452489
0.0428566
0.0412075
0.0400442
0.0392364
0.0379096
0.0356391
0.0328115
0.0302101
0.028403
0.0273825
0.0273911
0.0282641
0.02932
0.0299739
0.0294773
0.0277433
0.0254556
0.0229302
0.0205487
0.0186021
0.0168572
0.0152259
0.0138872
0.743074
0.446727
0.310711
0.243691
0.206048
0.182419
0.165802
0.153226
0.143593
0.135428
0.128595
0.123457
0.119511
0.116291
0.112164
0.106333
0.0993587
0.0927136
0.0876564
0.0845052
0.083724
0.0848576
0.0864616
0.0872191
0.0857373
0.0817558
0.0763001
0.0700655
0.0638667
0.0583815
0.0534004
0.0487662
0.0447523
0.86267
0.627675
0.479125
0.390606
0.335604
0.29917
0.272974
0.252979
0.237411
0.224332
0.213395
0.20482
0.197942
0.192054
0.185175
0.176352
0.166132
0.156265
0.14837
0.143076
0.140999
0.141488
0.142674
0.142821
0.14023
0.134525
0.126759
0.117772
0.108594
0.100123
0.0922721
0.0849221
0.0783852
0.916315
0.743375
0.609201
0.516341
0.452751
0.407982
0.374673
0.348749
0.32819
0.310872
0.296304
0.284546
0.274833
0.266316
0.256863
0.245468
0.232609
0.220116
0.209763
0.202395
0.198744
0.198052
0.198238
0.19734
0.193514
0.186318
0.176747
0.16566
0.154171
0.143272
0.132981
0.123248
0.114422
0.944821
0.819008
0.707056
0.620027
0.555065
0.506482
0.468894
0.438881
0.414572
0.393902
0.376334
0.361819
0.349558
0.338639
0.326892
0.31331
0.298288
0.283641
0.271172
0.261859
0.256518
0.254354
0.253205
0.251013
0.245875
0.237313
0.226248
0.213508
0.200216
0.18738
0.175076
0.163317
0.152482
0.961986
0.870113
0.780158
0.703621
0.642108
0.593437
0.554241
0.522039
0.495348
0.472338
0.452524
0.435814
0.421429
0.408462
0.39478
0.379404
0.362648
0.346261
0.332004
0.320923
0.313894
0.310132
0.307483
0.303876
0.297401
0.287569
0.275227
0.261154
0.246448
0.232085
0.218161
0.204728
0.192186
0.97317
0.905685
0.834817
0.770088
0.714704
0.668589
0.629977
0.597309
0.56957
0.545263
0.524017
0.505752
0.489758
0.475182
0.459978
0.443222
0.425149
0.407415
0.391696
0.379067
0.37044
0.365072
0.360879
0.35583
0.348048
0.337044
0.323604
0.308447
0.292634
0.277085
0.261887
0.247113
0.233165
0.980802
0.931006
0.875813
0.822463
0.774329
0.732385
0.695955
0.664224
0.636618
0.611992
0.590118
0.570962
0.553918
0.538213
0.521936
0.504227
0.485254
0.466562
0.449717
0.435792
0.425722
0.418826
0.413131
0.406686
0.397673
0.385618
0.371244
0.355219
0.338555
0.322109
0.305943
0.290132
0.275068
0.986151
0.949309
0.906649
0.863462
0.822701
0.78572
0.752491
0.722729
0.696207
0.672105
0.650337
0.630926
0.613385
0.597043
0.580147
0.561916
0.542455
0.523189
0.505559
0.490618
0.479308
0.471026
0.463936
0.456197
0.446071
0.433104
0.417966
0.401272
0.383986
0.366896
0.350031
0.33346
0.317556
0.98996
0.962667
0.92988
0.895386
0.861544
0.829724
0.800227
0.773098
0.748356
0.725446
0.704402
0.685304
0.667779
0.651268
0.63419
0.615848
0.596295
0.576829
0.558756
0.543095
0.530783
0.521302
0.512973
0.504083
0.492994
0.479277
0.463551
0.446382
0.428686
0.41118
0.393862
0.376785
0.360294
0.992698
0.972473
0.947388
0.920122
0.892459
0.865609
0.839999
0.815854
0.793338
0.7721
0.75226
0.733941
0.716878
0.700613
0.68375
0.665674
0.646396
0.627079
0.608896
0.592816
0.579759
0.569296
0.559917
0.550051
0.538172
0.523883
0.507751
0.490301
0.472397
0.454686
0.437139
0.41979
0.402952
0.994677
0.979693
0.960573
0.9392
0.916869
0.894571
0.872741
0.851677
0.831615
0.812347
0.794046
0.776861
0.760615
0.744946
0.728635
0.711151
0.692468
0.673618
0.655634
0.639428
0.62589
0.61468
0.604461
0.593813
0.581333
0.566657
0.550307
0.532765
0.514845
0.497131
0.479562
0.462157
0.445193
0.996113
0.985014
0.970487
0.953847
0.936003
0.917726
0.899401
0.881332
0.863777
0.846618
0.830053
0.81424
0.799072
0.784268
0.768779
0.752149
0.734328
0.716214
0.698704
0.682645
0.668883
0.657164
0.646324
0.635098
0.622212
0.607339
0.590957
0.573506
0.555755
0.538222
0.520825
0.503563
0.486679
0.997156
0.988937
0.977926
0.965042
0.950901
0.93608
0.920891
0.905609
0.890478
0.875438
0.860687
0.846379
0.832455
0.818703
0.804229
0.78865
0.771892
0.754729
0.737926
0.722254
0.70851
0.696513
0.685269
0.673667
0.660568
0.645682
0.629446
0.612263
0.594852
0.577671
0.56062
0.543684
0.527068
0.997916
0.991825
0.983494
0.973559
0.962426
0.950511
0.93805
0.925275
0.912398
0.899389
0.886432
0.873666
0.861067
0.848474
0.835135
0.820732
0.805176
0.78912
0.773206
0.758123
0.744608
0.732547
0.721104
0.709321
0.696191
0.681466
0.665542
0.648787
0.63187
0.615194
0.598648
0.5822
0.566021
0.998468
0.993948
0.987649
0.980011
0.971288
0.961771
0.951629
0.941047
0.930197
0.919063
0.907806
0.896546
0.885277
0.873879
0.861728
0.848561
0.83428
0.819428
0.804529
0.790193
0.777085
0.765147
0.75369
0.741903
0.72891
0.714502
0.699037
0.682852
0.666565
0.650528
0.63462
0.618801
0.603207
0.998871
0.995504
0.990738
0.984874
0.978059
0.97049
0.962281
0.953571
0.944493
0.935036
0.925335
0.915485
0.905492
0.895265
0.884293
0.872362
0.859372
0.845763
0.831956
0.818475
0.805911
0.794252
0.782942
0.771305
0.758593
0.744636
0.729758
0.714262
0.698716
0.683427
0.66827
0.653195
0.638309
0.999163
0.996641
0.993027
0.98852
0.983198
0.977187
0.970559
0.963412
0.955845
0.947846
0.939523
0.930947
0.92213
0.913003
0.903151
0.892407
0.88067
0.868293
0.855601
0.843038
0.831116
0.819857
0.808823
0.797462
0.785151
0.771755
0.757564
0.742852
0.728135
0.713677
0.699356
0.685115
0.671032
0.999375
0.997468
0.994713
0.991236
0.987068
0.982285
0.976925
0.971055
0.964744
0.957977
0.950836
0.943373
0.935599
0.927462
0.918634
0.908985
0.898423
0.887222
0.875626
0.863997
0.852774
0.841999
0.831337
0.820351
0.808532
0.795781
0.782352
0.768491
0.754664
0.741094
0.727666
0.714321
0.70111
0.999528
0.998063
0.995944
0.993241
0.989951
0.986118
0.981755
0.976904
0.971608
0.965851
0.959691
0.953163
0.946277
0.938994
0.931064
0.922388
0.91289
0.902773
0.892213
0.8815
0.870993
0.860751
0.850526
0.839983
0.828721
0.816669
0.80405
0.791082
0.778178
0.765527
0.753022
0.740606
0.728307
0.999638
0.998485
0.99683
0.994698
0.992065
0.98895
0.98535
0.981287
0.976784
0.971822
0.966443
0.960666
0.954501
0.94792
0.940739
0.932894
0.924321
0.91517
0.905558
0.895706
0.885901
0.876207
0.866454
0.856396
0.845726
0.834403
0.822617
0.810558
0.798585
0.786856
0.775278
0.763795
0.752419
0.999714
0.998776
0.997453
0.995731
0.993574
0.990983
0.987944
0.984463
0.980548
0.976181
0.971387
0.966176
0.960557
0.954512
0.94792
0.940747
0.932947
0.924624
0.915847
0.906777
0.897631
0.888475
0.879201
0.86964
0.859575
0.848987
0.838033
0.826875
0.815818
0.804991
0.794317
0.783748
0.773278
0.999764
0.998965
0.997869
0.996428
0.994598
0.992366
0.989712
0.98663
0.983115
0.979152
0.974754
0.969924
0.964672
0.958993
0.952822
0.946152
0.938963
0.931317
0.923248
0.914861
0.90631
0.897657
0.888846
0.879777
0.870308
0.860441
0.850298
0.840013
0.829834
0.819867
0.810053
0.800352
0.790747
0.999794
0.999073
0.998117
0.99685
0.99522
0.993205
0.990779
0.987927
0.984638
0.980897
0.97671
0.97208
0.967016
0.961527
0.955603
0.949265
0.942518
0.935393
0.927895
0.920081
0.912046
0.903844
0.895464
0.886862
0.877965
0.868787
0.859418
0.849959
0.840605
0.831437
0.822418
0.81352
0.804717
0.999806
0.999109
0.998222
0.997036
0.995493
0.993565
0.991223
0.988444
0.985212
0.981518
0.977362
0.972748
0.967692
0.962216
0.956364
0.950185
0.943713
0.93695
0.929885
0.922527
0.91492
0.907107
0.899113
0.890941
0.882579
0.874048
0.865403
0.856712
0.848114
0.839669
0.831364
0.823185
0.815101
0.999801
0.999081
0.998194
0.997002
0.995441
0.993477
0.99108
0.988221
0.98488
0.981058
0.976752
0.971973
0.966741
0.961099
0.955143
0.948953
0.942591
0.936036
0.929265
0.922247
0.914976
0.907485
0.899826
0.892042
0.884171
0.876238
0.868259
0.860268
0.852347
0.844537
0.836853
0.829295
0.821832
0.999779
0.998987
0.998033
0.996749
0.995065
0.992942
0.990347
0.98725
0.983633
0.979504
0.974865
0.969733
0.964142
0.958153
0.951919
0.945548
0.939136
0.932643
0.926034
0.919245
0.912223
0.904986
0.89761
0.89017
0.882744
0.875356
0.867982
0.860619
0.853288
0.846018
0.838851
0.831806
0.824856
0.999737
0.998819
0.997727
0.996257
0.994338
0.991922
0.98898
0.985481
0.981408
0.976786
0.971622
0.965947
0.959806
0.953289
0.946604
0.939892
0.933279
0.926707
0.92014
0.913478
0.906624
0.899581
0.892442
0.885306
0.878282
0.871389
0.864557
0.857746
0.850917
0.844087
0.837329
0.830682
0.824127
0.999671
0.998565
0.997248
0.995489
0.993207
0.990351
0.986895
0.982811
0.978091
0.972775
0.966885
0.960468
0.953586
0.946359
0.939055
0.931846
0.924892
0.918116
0.911482
0.90486
0.898106
0.891208
0.884269
0.877404
0.870746
0.864301
0.857954
0.851623
0.845207
0.838715
0.832254
0.825887
0.819607
0.999575
0.9982
0.996559
0.994383
0.991589
0.98812
0.983959
0.979087
0.973507
0.967283
0.960454
0.953088
0.945271
0.937153
0.929069
0.92122
0.913796
0.906707
0.899916
0.893262
0.886559
0.879772
0.873009
0.866395
0.860078
0.854044
0.848131
0.84221
0.836123
0.829869
0.823595
0.817388
0.811262
0.999438
0.997694
0.995599
0.992851
0.989363
0.985079
0.979993
0.9741
0.967424
0.960057
0.952063
0.943538
0.93459
0.925409
0.916392
0.907774
0.899772
0.892279
0.885261
0.878526
0.871842
0.865152
0.85856
0.852191
0.846202
0.840554
0.835032
0.829461
0.823622
0.817512
0.811317
0.805156
0.799065
0.999249
0.997002
0.994287
0.990772
0.986368
0.981024
0.974754
0.967576
0.959543
0.95078
0.941386
0.931487
0.921219
0.910812
0.900729
0.891232
0.882564
0.8746
0.867308
0.860466
0.853795
0.847209
0.840801
0.834692
0.829032
0.823757
0.818595
0.813324
0.807661
0.801606
0.795391
0.789164
0.782996
0.998987
0.996059
0.992513
0.987984
0.982389
0.975691
0.967934
0.959172
0.949492
0.939067
0.928033
0.91655
0.904786
0.89301
0.881751
0.871292
0.861898
0.853421
0.845837
0.838888
0.832248
0.825796
0.819608
0.81379
0.808481
0.80358
0.79876
0.793746
0.788199
0.78212
0.775793
0.769401
0.763051
0.998627
0.994782
0.990125
0.984269
0.977145
0.968742
0.959147
0.948464
0.936828
0.924463
0.911552
0.898293
0.88488
0.871622
0.859111
0.847641
0.837493
0.828493
0.820626
0.8136
0.807035
0.800773
0.794861
0.789385
0.784462
0.779952
0.775468
0.770684
0.765201
0.759031
0.752512
0.745866
0.739245
0.998133
0.993055
0.986925
0.979344
0.970276
0.959749
0.947915
0.934943
0.921025
0.906449
0.891441
0.876242
0.861066
0.846258
0.832462
0.819974
0.809082
0.799585
0.791476
0.784428
0.778007
0.772013
0.766457
0.761392
0.756907
0.752818
0.748676
0.744106
0.73865
0.732336
0.725559
0.718586
0.711618
0.997454
0.99072
0.982646
0.97284
0.96132
0.948182
0.933659
0.918007
0.901484
0.884443
0.867159
0.849905
0.832907
0.816537
0.801479
0.788016
0.776432
0.766501
0.758221
0.751234
0.745052
0.739424
0.734319
0.72975
0.725768
0.722141
0.718363
0.714003
0.70855
0.702052
0.69497
0.687613
0.680242
0.996524
0.987564
0.976932
0.964273
0.949693
0.933383
0.915686
0.896957
0.877531
0.857818
0.838139
0.818786
0.799984
0.782112
0.765881
0.751544
0.73937
0.729103
0.720754
0.713936
0.708104
0.702956
0.69841
0.694433
0.691029
0.687918
0.684532
0.680392
0.674933
0.66823
0.66081
0.653033
0.645225
0.995245
0.983296
0.969311
0.953019
0.934658
0.914552
0.893176
0.871
0.848429
0.825921
0.803819
0.782422
0.761927
0.742703
0.725463
0.710414
0.697798
0.687333
0.679044
0.672519
0.667161
0.662616
0.658744
0.655459
0.652715
0.650177
0.647223
0.643322
0.637863
0.630949
0.623182
0.614973
0.606717
0.993482
0.977515
0.95915
0.938265
0.915291
0.890721
0.865183
0.839258
0.813403
0.788096
0.763674
0.740412
0.718449
0.698122
0.68012
0.664586
0.651724
0.641229
0.633148
0.627051
0.622294
0.618476
0.61539
0.612897
0.610891
0.608987
0.606509
0.602876
0.597436
0.590326
0.582224
0.573593
0.564905
0.991043
0.969667
0.945594
0.918953
0.890436
0.860734
0.830629
0.800786
0.771672
0.743732
0.717258
0.692457
0.669383
0.648307
0.629874
0.614141
0.601271
0.590943
0.583227
0.577694
0.573659
0.570677
0.568479
0.566864
0.565669
0.564456
0.562498
0.559172
0.553784
0.54651
0.538107
0.529093
0.520018
0.987646
0.958964
0.927478
0.893704
0.858658
0.823233
0.788323
0.754611
0.722492
0.692311
0.664249
0.638409
0.614715
0.593351
0.574894
0.559304
0.546695
0.536744
0.529554
0.524707
0.521495
0.519436
0.518201
0.517531
0.517201
0.516726
0.515333
0.512354
0.507063
0.499676
0.491031
0.481703
0.472317
0.982865
0.944262
0.903186
0.860701
0.81818
0.776649
0.736993
0.699785
0.665231
0.63347
0.604511
0.578304
0.554617
0.533522
0.515512
0.500446
0.488389
0.479029
0.472511
0.468449
0.466125
0.465039
0.464804
0.465111
0.465675
0.465966
0.465172
0.462586
0.45745
0.45002
0.441218
0.431673
0.422091
0.976031
0.92384
0.870425
0.817545
0.766833
0.719226
0.675358
0.635482
0.599446
0.567075
0.538141
0.512408
0.489467
0.469274
0.452226
0.438085
0.426877
0.418311
0.412588
0.409372
0.407954
0.407836
0.408586
0.409854
0.411302
0.412361
0.412187
0.410035
0.40512
0.397739
0.388896
0.379271
0.369645
0.966001
0.894983
0.825861
0.76105
0.702014
0.649092
0.602248
0.561111
0.524991
0.493297
0.465522
0.441237
0.419862
0.401242
0.385688
0.372877
0.3628
0.355212
0.350369
0.348009
0.347454
0.348231
0.349882
0.35203
0.354297
0.356087
0.356531
0.354851
0.350234
0.343018
0.334284
0.324762
0.315297
0.950646
0.853145
0.764522
0.687018
0.620734
0.56444
0.516801
0.476493
0.442135
0.412679
0.387353
0.365566
0.346604
0.330229
0.316686
0.305584
0.2969
0.290438
0.28652
0.284968
0.28516
0.286674
0.289053
0.291916
0.294864
0.29729
0.298316
0.297133
0.292905
0.286002
0.277582
0.268409
0.259376
0.925412
0.790214
0.678875
0.59009
0.519872
0.463867
0.418761
0.382051
0.351669
0.326184
0.304652
0.286407
0.270668
0.257163
0.246099
0.237048
0.229981
0.224762
0.221767
0.220915
0.221656
0.223653
0.226479
0.229779
0.233164
0.236047
0.237565
0.236889
0.23316
0.226771
0.218948
0.210464
0.202231
0.878824
0.690813
0.557658
0.464029
0.396854
0.346981
0.308859
0.279013
0.254977
0.235191
0.218721
0.204956
0.193148
0.183048
0.174857
0.168143
0.162883
0.158997
0.156888
0.15657
0.157582
0.159699
0.162557
0.165869
0.1693
0.172331
0.174158
0.173968
0.170882
0.165306
0.158497
0.151192
0.144261
0.776491
0.524932
0.385471
0.303336
0.251118
0.215256
0.189204
0.16952
0.154018
0.141424
0.13106
0.122513
0.115181
0.1089
0.10388
0.0997299
0.0964409
0.0939727
0.0927036
0.0927111
0.0936416
0.0954018
0.0977282
0.10044
0.103311
0.105963
0.107747
0.107947
0.105714
0.101434
0.0963017
0.0909094
0.0859747
0.49778
0.237467
0.14751
0.107939
0.0865259
0.0729429
0.0634889
0.0565575
0.0511725
0.046812
0.0432501
0.0403733
0.0378712
0.035697
0.0340277
0.0326055
0.0314487
0.0305295
0.0300794
0.030177
0.0306227
0.0314399
0.0325076
0.0337754
0.0351705
0.0365521
0.0376062
0.0379294
0.0369211
0.0348414
0.0324977
0.0301355
0.0281253
0.0126758
0.0115234
0.010561
0.00975311
0.00905596
0.00850135
0.00804667
0.00764269
0.00729432
0.00708631
0.00701629
0.00703404
0.00721027
0.00757499
0.00805717
0.00859073
0.00918618
0.00980928
0.0104993
0.0111991
0.0118657
0.0125714
0.0132405
0.0410348
0.0375191
0.0345078
0.0319451
0.0297418
0.0279316
0.0264441
0.0251776
0.0241199
0.023425
0.023131
0.0231724
0.0236658
0.0246601
0.0260041
0.0275436
0.0292518
0.0310578
0.0329932
0.0349429
0.0368396
0.0387604
0.0405772
0.0721976
0.0663151
0.0612048
0.056803
0.0530025
0.0498315
0.0472051
0.0449973
0.0431809
0.0419431
0.0413572
0.0413695
0.0421225
0.0436626
0.0457756
0.0482347
0.0509633
0.0538515
0.0569058
0.0599683
0.0629554
0.0659218
0.0687087
0.105907
0.0977347
0.0905418
0.084273
0.0788211
0.0742166
0.0703684
0.067142
0.064503
0.0626618
0.0617181
0.061635
0.0625764
0.0645771
0.0673642
0.0706447
0.0742892
0.0781456
0.0821919
0.0862314
0.0901664
0.0940256
0.0976287
0.141853
0.131542
0.122349
0.114242
0.107129
0.101054
0.0959287
0.0916206
0.0880964
0.0855889
0.0842196
0.0839686
0.0850182
0.0873881
0.0907485
0.0947434
0.0991896
0.103893
0.108802
0.113683
0.118427
0.123039
0.127323
0.179698
0.167457
0.156404
0.146541
0.137806
0.130263
0.123835
0.118404
0.113943
0.11071
0.108848
0.108353
0.109425
0.112067
0.115893
0.120488
0.125615
0.131039
0.136679
0.142268
0.147688
0.152921
0.157763
0.219095
0.20517
0.192442
0.180955
0.17068
0.161711
0.153989
0.14742
0.141988
0.137982
0.135564
0.134751
0.135757
0.138568
0.142747
0.147822
0.153504
0.159517
0.165757
0.171919
0.177884
0.183612
0.188896
0.259698
0.244353
0.230167
0.217224
0.205529
0.195214
0.186242
0.178546
0.172132
0.167319
0.164292
0.16309
0.163941
0.166817
0.171234
0.176664
0.182771
0.189242
0.195947
0.202551
0.208933
0.215036
0.220649
0.301162
0.284671
0.269264
0.255059
0.2421
0.230551
0.220402
0.211622
0.204238
0.198603
0.194926
0.193271
0.193884
0.19672
0.201255
0.206915
0.213316
0.220109
0.227145
0.234059
0.240731
0.247087
0.252917
0.343147
0.325783
0.309404
0.294155
0.280112
0.267471
0.25625
0.246455
0.238138
0.231687
0.227334
0.225173
0.225468
0.228163
0.232698
0.238458
0.245018
0.251997
0.259228
0.266318
0.273152
0.279639
0.285574
0.385308
0.367342
0.350243
0.334179
0.319251
0.305684
0.293522
0.282808
0.273619
0.266378
0.261343
0.258636
0.258543
0.260997
0.265416
0.271148
0.277731
0.28476
0.292048
0.29918
0.306047
0.312543
0.318468
0.427296
0.408987
0.391418
0.374771
0.359169
0.344859
0.331906
0.32039
0.310413
0.302431
0.296723
0.293445
0.292903
0.295028
0.299218
0.304798
0.311272
0.318215
0.325425
0.332468
0.339241
0.345624
0.351425
0.468761
0.450356
0.432562
0.415567
0.399506
0.384646
0.371069
0.358888
0.348228
0.339571
0.33322
0.329363
0.328325
0.330039
0.333895
0.339203
0.345439
0.352163
0.359161
0.365984
0.372536
0.378687
0.384251
0.509344
0.49108
0.473297
0.456183
0.439884
0.424676
0.410653
0.39796
0.386739
0.377494
0.370547
0.366117
0.36455
0.365782
0.369208
0.374128
0.380001
0.386378
0.393033
0.399508
0.405716
0.411516
0.416731
0.548689
0.530784
0.513235
0.496225
0.479904
0.464551
0.450269
0.437227
0.425581
0.41585
0.408372
0.403393
0.401279
0.401972
0.40488
0.409307
0.4147
0.420607
0.426794
0.432798
0.438542
0.443877
0.448635
0.586444
0.569095
0.551987
0.535292
0.519159
0.503862
0.489509
0.476288
0.464364
0.454263
0.446332
0.440844
0.438178
0.438288
0.440605
0.444443
0.449248
0.454569
0.46017
0.465589
0.470756
0.475518
0.479718
0.62227
0.605654
0.589173
0.572987
0.557236
0.542189
0.527951
0.514724
0.502675
0.49233
0.48404
0.478097
0.474891
0.474389
0.476053
0.479218
0.483338
0.487969
0.492875
0.497601
0.502087
0.506176
0.509722
0.655844
0.640107
0.624415
0.608909
0.59372
0.579103
0.565158
0.552092
0.540073
0.529615
0.521067
0.514734
0.511012
0.509884
0.510848
0.513272
0.516622
0.520472
0.524587
0.528526
0.532238
0.535565
0.538374
0.686871
0.672132
0.657361
0.642682
0.628211
0.614185
0.600696
0.587952
0.576112
0.565674
0.556976
0.55033
0.546131
0.544376
0.54461
0.546239
0.548751
0.551742
0.554985
0.558056
0.560914
0.563403
0.565405
0.715084
0.701429
0.687684
0.673949
0.660328
0.647033
0.634146
0.621868
0.610351
0.60006
0.591321
0.584443
0.579814
0.577447
0.576933
0.577729
0.57935
0.581421
0.583725
0.585862
0.587801
0.58939
0.590526
0.74025
0.727733
0.715083
0.702381
0.68971
0.677259
0.665097
0.653412
0.642344
0.63232
0.623645
0.616619
0.611616
0.608661
0.607399
0.607339
0.608034
0.609141
0.610457
0.611613
0.612584
0.613228
0.613458
0.762172
0.750815
0.739301
0.727686
0.716037
0.704514
0.693172
0.682186
0.671675
0.662025
0.653513
0.646423
0.641107
0.637599
0.6356
0.634678
0.634428
0.634545
0.634841
0.634983
0.634955
0.634627
0.633925
0.780681
0.770478
0.760107
0.749603
0.739016
0.728476
0.718024
0.707814
0.697948
0.68876
0.680497
0.673418
0.667848
0.663828
0.661115
0.659339
0.658142
0.65726
0.656523
0.65564
0.6546
0.653288
0.651647
0.795647
0.786563
0.777316
0.767919
0.758403
0.74887
0.739347
0.729966
0.720807
0.712152
0.704209
0.697213
0.691448
0.686964
0.683572
0.680962
0.678834
0.67696
0.675195
0.673294
0.671247
0.668961
0.666391
0.80696
0.79894
0.79077
0.782447
0.773985
0.765456
0.756874
0.748347
0.739933
0.731858
0.724291
0.717433
0.711528
0.706626
0.702593
0.699183
0.696148
0.693307
0.690536
0.687637
0.684606
0.681367
0.677894
0.814536
0.807503
0.800345
0.79304
0.78559
0.778036
0.770382
0.762707
0.755053
0.747583
0.740429
0.733754
0.727756
0.722486
0.717857
0.713689
0.709789
0.706019
0.702279
0.698422
0.694446
0.690297
0.685963
0.818306
0.81217
0.805939
0.799579
0.793076
0.786446
0.779682
0.772836
0.765932
0.759074
0.752352
0.74589
0.739839
0.734248
0.729074
0.724197
0.719483
0.714833
0.710177
0.705415
0.700547
0.695542
0.690404
0.818215
0.812874
0.807474
0.801967
0.796333
0.790557
0.784626
0.778565
0.772381
0.766121
0.759832
0.753602
0.747529
0.741659
0.735989
0.730458
0.72499
0.719524
0.714015
0.708415
0.702722
0.696929
0.691057
0.81422
0.809567
0.804892
0.800142
0.795284
0.79028
0.78511
0.779776
0.774267
0.768575
0.762709
0.756717
0.750647
0.744542
0.738432
0.732311
0.726159
0.719951
0.713666
0.707308
0.700872
0.694374
0.687851
0.806283
0.802207
0.798149
0.794048
0.789867
0.785542
0.781053
0.776372
0.771479
0.766315
0.760847
0.75509
0.749043
0.742741
0.736246
0.729602
0.722843
0.715973
0.709001
0.701974
0.694885
0.687774
0.680692
0.794378
0.790769
0.787216
0.783656
0.780047
0.776304
0.772405
0.768298
0.763955
0.759266
0.754166
0.748634
0.742622
0.736163
0.72934
0.722245
0.714961
0.707521
0.699955
0.692358
0.684715
0.67709
0.669548
0.77849
0.77524
0.772084
0.768956
0.765814
0.762553
0.759152
0.755536
0.751669
0.747399
0.742629
0.737309
0.731345
0.724767
0.717677
0.710207
0.702487
0.694573
0.686516
0.678454
0.670364
0.66233
0.654435
0.758621
0.755629
0.752763
0.749964
0.747188
0.74431
0.741316
0.738107
0.734642
0.730734
0.726255
0.72113
0.715227
0.708571
0.701278
0.693513
0.685453
0.677166
0.668728
0.66031
0.651885
0.643553
0.635413
0.734797
0.731968
0.729297
0.726729
0.724222
0.721636
0.718961
0.716078
0.712944
0.709342
0.705117
0.700175
0.694346
0.687656
0.680228
0.672255
0.663954
0.655404
0.646697
0.63804
0.629393
0.620876
0.612603
0.70707
0.704322
0.70176
0.699334
0.69701
0.694631
0.692196
0.689565
0.686697
0.68335
0.679347
0.674577
0.668842
0.662166
0.654677
0.646587
0.638149
0.629447
0.620588
0.611808
0.603058
0.594469
0.586171
0.675523
0.672784
0.670251
0.667889
0.665669
0.663421
0.661152
0.658706
0.656043
0.652904
0.649094
0.644491
0.638871
0.63226
0.624785
0.616671
0.6082
0.599458
0.590563
0.581776
0.573034
0.564482
0.556265
0.640288
0.637499
0.634933
0.632571
0.63039
0.62821
0.626047
0.62373
0.621223
0.618255
0.614617
0.610181
0.604705
0.598216
0.590833
0.58279
0.574394
0.565724
0.556908
0.548226
0.539602
0.531191
0.523153
0.601527
0.598646
0.596
0.593588
0.591397
0.589236
0.587131
0.584901
0.582511
0.579689
0.576211
0.571952
0.566653
0.560345
0.553138
0.545264
0.537048
0.528563
0.519938
0.511469
0.503068
0.494896
0.487126
0.559458
0.556458
0.553702
0.551207
0.548973
0.546798
0.54472
0.542547
0.54025
0.537556
0.534238
0.53017
0.525087
0.519023
0.512074
0.504465
0.496533
0.488339
0.480011
0.471858
0.463775
0.455928
0.448505
0.514326
0.511202
0.508325
0.505735
0.503444
0.501241
0.499176
0.497047
0.494832
0.492265
0.489115
0.485264
0.480443
0.47469
0.468085
0.460836
0.45329
0.445491
0.437563
0.429819
0.422144
0.4147
0.407691
0.466426
0.463188
0.460198
0.457519
0.455173
0.452946
0.450893
0.448812
0.446681
0.444252
0.441287
0.437684
0.433175
0.427799
0.421619
0.414823
0.407759
0.40045
0.393015
0.385768
0.378578
0.371605
0.365064
0.416071
0.412754
0.409683
0.406944
0.404571
0.402343
0.400326
0.398314
0.396288
0.394019
0.391272
0.387958
0.383815
0.378887
0.373216
0.366963
0.360474
0.35375
0.346898
0.34023
0.333598
0.327159
0.321134
0.363603
0.360264
0.357166
0.354417
0.352062
0.349877
0.347934
0.346027
0.344139
0.342066
0.339576
0.336597
0.332877
0.328466
0.323384
0.31776
0.311934
0.305882
0.299697
0.293684
0.28768
0.281833
0.276368
0.309382
0.306106
0.303063
0.300381
0.298116
0.296039
0.294229
0.292481
0.290781
0.288952
0.286767
0.284176
0.280942
0.277117
0.272701
0.26779
0.262711
0.257417
0.251984
0.246705
0.241404
0.236214
0.231362
0.253783
0.250684
0.247803
0.245288
0.243203
0.241316
0.23971
0.238185
0.236729
0.235197
0.233369
0.231219
0.228526
0.22535
0.221671
0.217548
0.213294
0.208839
0.204238
0.199773
0.195251
0.190793
0.186622
0.19722
0.194444
0.191863
0.189639
0.187844
0.186242
0.18492
0.183688
0.182534
0.181349
0.179925
0.178261
0.176159
0.173685
0.1708
0.16753
0.164168
0.160624
0.156933
0.153361
0.149704
0.146065
0.142662
0.140169
0.137903
0.135792
0.134008
0.132625
0.13141
0.130453
0.129578
0.128777
0.12798
0.126995
0.12585
0.124371
0.122635
0.120586
0.118219
0.115806
0.113236
0.110528
0.107929
0.105225
0.102504
0.0999767
0.0832217
0.0816867
0.0802372
0.0790488
0.0781991
0.0774566
0.0769221
0.0764395
0.0760116
0.0756098
0.0750679
0.074442
0.0735902
0.0725983
0.0714019
0.0699616
0.0685312
0.0669811
0.0653103
0.0637504
0.0620774
0.0603687
0.058823
0.0271841
0.0266052
0.0260193
0.0255772
0.025338
0.0251039
0.0249858
0.0248686
0.0247725
0.0247132
0.0245657
0.0244119
0.0241486
0.0238665
0.0235022
0.0229908
0.022546
0.0220361
0.0214388
0.0209547
0.0203759
0.0197511
0.0192563
0.013875
0.0144027
0.0147303
0.0149093
0.0150585
0.0150919
0.0149867
0.0148045
0.0145886
0.0143676
0.0141244
0.0139497
0.0137744
0.0137388
0.0137187
0.0137494
0.014102
0.0144944
0.0155069
0.0187789
0.0326346
0.0422131
0.0435338
0.0444232
0.0449732
0.0453467
0.0454237
0.0451892
0.0447554
0.0442159
0.0436461
0.0430636
0.042641
0.0423322
0.0423741
0.0426113
0.043244
0.0448049
0.0473325
0.0526295
0.0639281
0.0860287
0.0711691
0.0731333
0.0744999
0.0753787
0.0759384
0.0760579
0.0757413
0.0751283
0.074349
0.0735239
0.0727173
0.0721727
0.0719
0.0722135
0.0730002
0.0746377
0.0778806
0.0831131
0.0924844
0.108377
0.132425
0.100775
0.103273
0.10504
0.106199
0.106917
0.107079
0.106709
0.105968
0.105014
0.104013
0.103077
0.102523
0.102425
0.103176
0.104716
0.107569
0.112598
0.12027
0.132442
0.150364
0.174306
0.131038
0.133977
0.136075
0.137466
0.138314
0.138514
0.138109
0.137273
0.136193
0.135076
0.134085
0.133605
0.133779
0.135066
0.137438
0.141499
0.148088
0.15756
0.171316
0.189839
0.213003
0.161941
0.165236
0.167598
0.169171
0.17012
0.170345
0.16991
0.168999
0.167826
0.166634
0.165634
0.165279
0.165768
0.167609
0.170774
0.175878
0.183642
0.194248
0.208712
0.227101
0.249247
0.193436
0.197006
0.199564
0.201269
0.202283
0.202514
0.202042
0.201063
0.19981
0.198562
0.197574
0.197356
0.198156
0.200501
0.204334
0.210234
0.218768
0.229958
0.244549
0.262408
0.283421
0.225452
0.229214
0.2319
0.233683
0.234721
0.234931
0.234408
0.233354
0.232021
0.230719
0.229739
0.229641
0.230704
0.233454
0.237787
0.244216
0.253156
0.264508
0.278844
0.295939
0.315747
0.257885
0.261756
0.264498
0.266301
0.267317
0.26747
0.266871
0.265724
0.264297
0.262925
0.26193
0.261907
0.26316
0.266191
0.270839
0.277543
0.286588
0.297792
0.311615
0.327795
0.346365
0.290603
0.294494
0.297216
0.298974
0.299914
0.299968
0.299257
0.297989
0.296441
0.294969
0.293917
0.293908
0.295257
0.298434
0.303218
0.309975
0.318881
0.329708
0.342836
0.357997
0.375275
0.323454
0.327271
0.329893
0.331537
0.332341
0.332245
0.331382
0.329954
0.32825
0.326637
0.325478
0.325412
0.326759
0.329945
0.3347
0.341317
0.34989
0.360163
0.372457
0.386506
0.402415
0.356262
0.359913
0.362352
0.36381
0.364417
0.364119
0.363058
0.361431
0.359531
0.357734
0.356416
0.356221
0.357467
0.360537
0.365114
0.371429
0.379509
0.389082
0.400427
0.41328
0.427757
0.388834
0.392222
0.394396
0.395595
0.395941
0.395387
0.394081
0.392213
0.390078
0.388053
0.386521
0.386125
0.387178
0.390016
0.394283
0.400158
0.40761
0.416368
0.426671
0.438269
0.451299
0.420954
0.423984
0.425808
0.426674
0.426695
0.42583
0.424231
0.42208
0.419668
0.417373
0.415576
0.414913
0.415688
0.418188
0.422034
0.427351
0.434068
0.441918
0.451108
0.461404
0.472949
0.452396
0.454974
0.456368
0.456829
0.456464
0.455235
0.453298
0.450826
0.448102
0.445498
0.44339
0.4424
0.442819
0.44489
0.448215
0.452874
0.458765
0.465631
0.473649
0.482611
0.492664
0.48292
0.484956
0.485842
0.48583
0.48502
0.48338
0.481066
0.478238
0.475172
0.472227
0.469771
0.468403
0.4684
0.469962
0.472681
0.476599
0.481591
0.487412
0.494216
0.501821
0.510377
0.512276
0.513686
0.513993
0.513449
0.512143
0.510049
0.507324
0.504112
0.50068
0.49737
0.494535
0.492745
0.492262
0.493245
0.495286
0.498392
0.502423
0.507153
0.512715
0.518958
0.526035
0.5402
0.540911
0.540577
0.539447
0.537602
0.535023
0.531861
0.528249
0.524437
0.520747
0.517514
0.515271
0.514261
0.514608
0.515912
0.51815
0.521175
0.52478
0.529082
0.533961
0.539562
0.566435
0.566385
0.565361
0.563605
0.56119
0.558104
0.554492
0.550472
0.546277
0.542203
0.538561
0.535842
0.534269
0.533932
0.534449
0.535774
0.537756
0.540213
0.543249
0.546784
0.550972
0.590707
0.589845
0.588093
0.585681
0.582676
0.579072
0.575006
0.570581
0.56601
0.561558
0.557507
0.554299
0.552137
0.551082
0.550775
0.551153
0.552071
0.553373
0.555154
0.557377
0.560196
0.612752
0.611045
0.608542
0.60546
0.601859
0.597741
0.59323
0.588416
0.58349
0.578679
0.57423
0.570535
0.567768
0.56597
0.564813
0.564224
0.564067
0.564215
0.564762
0.565714
0.567232
0.632311
0.62974
0.62648
0.622728
0.618539
0.613922
0.608989
0.603815
0.598563
0.593422
0.588598
0.584423
0.581047
0.57849
0.576467
0.5749
0.57367
0.572682
0.57203
0.57177
0.572079
0.64912
0.645685
0.641676
0.637269
0.632516
0.627432
0.622113
0.616621
0.611089
0.60566
0.600497
0.595865
0.591886
0.588571
0.58568
0.583137
0.580847
0.578751
0.576945
0.575539
0.574723
0.662966
0.658685
0.653953
0.648924
0.643645
0.638139
0.632484
0.626729
0.620972
0.615308
0.609851
0.604794
0.60023
0.596164
0.592412
0.588906
0.585581
0.582415
0.579514
0.577042
0.575214
0.6736
0.668505
0.663092
0.657486
0.651732
0.645862
0.639934
0.633981
0.628067
0.622234
0.616538