/*--------------------------------*- C++ -*----------------------------------*\
  =========                 |
  \\      /  F ield         | OpenFOAM: The Open Source CFD Toolbox
   \\    /   O peration     | Website:  https://openfoam.org
    \\  /    A nd           | Version:  6
     \\/     M anipulation  |
\*---------------------------------------------------------------------------*/
FoamFile
{
    version     2.0;
    format      ascii;
    class       volVectorField;
    location    "3200";
    object      U;
}
// * * * * * * * * * * * * * * * * * * * * * * * * * * * * * * * * * * * * * //

dimensions      [0 1 -1 0 0 0 0];

internalField   nonuniform List<vector> 
3773
(
(-0.00334655 0.03691 2.43242e-21)
(-0.00345733 0.0298392 -2.8041e-21)
(-0.00195975 0.0309921 -2.62917e-20)
(-0.00103869 0.0323925 1.33961e-20)
(-0.000394996 0.0340774 5.91331e-21)
(-5.55113e-05 0.0359947 -6.73789e-21)
(-3.17372e-05 0.0375619 4.89164e-21)
(-0.000124588 0.0385773 -1.58459e-21)
(-0.000335393 0.0397149 0)
(-0.000694104 0.040173 0)
(-0.000885923 0.0402198 1.13375e-20)
(-0.0010494 0.0409928 3.2278e-20)
(-0.00145629 0.0421326 -2.13567e-20)
(-0.00238712 0.0437887 1.86989e-20)
(-0.00403621 0.0440111 -5.41724e-20)
(-0.00556146 0.0415225 -7.94356e-20)
(-0.00621791 0.0372044 -4.18025e-20)
(-0.0058093 0.0329105 -8.48605e-20)
(-0.00480246 0.0301957 -2.84378e-20)
(-0.00354908 0.0289618 1.50602e-20)
(-0.00234909 0.0300225 -1.55222e-20)
(-0.00174977 0.0332811 -7.76339e-21)
(-0.0022427 0.0371427 7.68603e-20)
(-0.00406538 0.0402543 -3.55667e-21)
(-0.00686251 0.0402793 -9.85973e-20)
(-0.00930696 0.0366947 1.68679e-20)
(-0.0107067 0.0315149 -6.04149e-20)
(-0.0109828 0.0256286 -5.32254e-20)
(-0.0103703 0.0202435 -4.37805e-20)
(-0.00940431 0.0161585 -1.07986e-20)
(-0.0082889 0.012763 -3.43411e-20)
(-0.00708304 0.00986628 4.42735e-20)
(-0.00595418 0.00773817 -4.93313e-20)
(-0.00613935 0.112567 0)
(-0.00781961 0.0994882 -7.26231e-20)
(-0.00614562 0.0987965 3.84929e-20)
(-0.00418463 0.100362 8.71368e-21)
(-0.00263961 0.103229 1.01657e-21)
(-0.00167972 0.10685 -1.72948e-20)
(-0.00133046 0.110107 2.48176e-20)
(-0.00137197 0.112554 -1.50481e-20)
(-0.0017223 0.115004 -1.71466e-20)
(-0.00236598 0.116384 7.58627e-21)
(-0.00297834 0.117083 7.0406e-21)
(-0.00373092 0.118665 1.31737e-20)
(-0.00496947 0.120642 1.21427e-20)
(-0.00696722 0.122931 -2.62018e-20)
(-0.00985542 0.12269 2.35921e-20)
(-0.0126032 0.118051 -1.87325e-21)
(-0.0142268 0.11004 2.02358e-20)
(-0.014183 0.101502 7.33837e-20)
(-0.0128524 0.0953376 1.89754e-20)
(-0.0108577 0.0921452 1.91843e-20)
(-0.00894543 0.0933236 0)
(-0.00807404 0.0984547 -6.00187e-20)
(-0.00901339 0.104606 1.9909e-20)
(-0.012013 0.109211 -1.06179e-19)
(-0.0166052 0.108836 1.23546e-19)
(-0.0212502 0.102364 -2.82355e-20)
(-0.0247505 0.0921689 -4.16007e-20)
(-0.0265269 0.0797167 2.82797e-20)
(-0.0265666 0.0670971 -5.59496e-20)
(-0.0254081 0.0561685 5.21924e-20)
(-0.0234528 0.0465858 8.34534e-21)
(-0.0210174 0.0381109 3.34277e-20)
(-0.0184504 0.0312647 1.46084e-19)
(-0.00642576 0.187418 -1.10489e-19)
(-0.00982914 0.171883 7.00091e-20)
(-0.0090208 0.168986 3.93519e-20)
(-0.00708857 0.169571 -3.03206e-20)
(-0.00526502 0.172374 -1.00427e-21)
(-0.00397977 0.176483 1.71343e-20)
(-0.00335311 0.180482 4.1718e-21)
(-0.00325607 0.183737 0)
(-0.00359855 0.186949 -1.44144e-20)
(-0.0043341 0.189016 1.5396e-20)
(-0.00523377 0.190303 -7.28361e-21)
(-0.00641958 0.192309 0)
(-0.00817479 0.194494 -1.33607e-20)
(-0.0106849 0.196629 0)
(-0.0139604 0.195827 -2.28714e-20)
(-0.0171598 0.190219 4.30378e-20)
(-0.019372 0.180672 4.10781e-20)
(-0.0199715 0.17008 -5.30225e-22)
(-0.0190883 0.161791 -3.89862e-20)
(-0.0173243 0.156959 3.91464e-20)
(-0.0155479 0.157307 -1.97654e-20)
(-0.0148189 0.162242 1.06968e-22)
(-0.0159481 0.16833 5.59695e-20)
(-0.0191568 0.172595 3.3255e-20)
(-0.0240261 0.171484 -3.33848e-20)
(-0.0293545 0.163641 -5.76356e-20)
(-0.0339701 0.151052 -2.35465e-20)
(-0.0370811 0.135074 1.72755e-19)
(-0.0383623 0.117907 1.75459e-19)
(-0.0380159 0.101891 9.06954e-21)
(-0.0363602 0.0871271 1.21148e-19)
(-0.0337758 0.0735978 -4.79136e-20)
(-0.030675 0.0621002 -6.76797e-20)
(-0.00571266 0.259445 2.21109e-19)
(-0.0101392 0.243494 0)
(-0.0105731 0.239115 -3.48062e-20)
(-0.00930343 0.238583 8.71701e-21)
(-0.00770544 0.240773 -4.29875e-21)
(-0.00640533 0.244692 2.51476e-20)
(-0.00565389 0.248801 -2.49329e-20)
(-0.00544134 0.252351 0)
(-0.0057186 0.255901 0)
(-0.00645666 0.258352 -1.12316e-20)
(-0.0075106 0.259997 -3.62339e-21)
(-0.00895746 0.262157 2.72571e-20)
(-0.0109746 0.264267 -5.33689e-20)
(-0.0136291 0.266047 1.32489e-20)
(-0.0168675 0.264781 0)
(-0.0200792 0.258751 8.95824e-20)
(-0.0225742 0.24866 0)
(-0.0237745 0.237185 -8.22624e-20)
(-0.0236293 0.227665 1.96945e-20)
(-0.0225884 0.221531 -1.95433e-22)
(-0.0214216 0.220683 -1.98655e-20)
(-0.0210947 0.224507 9.77694e-21)
(-0.0223323 0.22949 1.79512e-20)
(-0.0253297 0.232626 -2.05594e-21)
(-0.0298052 0.230522 3.20082e-20)
(-0.0349675 0.221786 6.26191e-22)
(-0.0398949 0.208015 -2.86514e-20)
(-0.0438192 0.190262 -1.70295e-20)
(-0.046234 0.170508 -8.27419e-20)
(-0.0470145 0.151149 -1.63791e-19)
(-0.0462699 0.132541 2.63536e-20)
(-0.044283 0.114895 4.01954e-20)
(-0.04141 0.0993001 9.76447e-20)
(-0.00487752 0.328177 -1.1236e-19)
(-0.00964624 0.312787 4.4572e-21)
(-0.011104 0.307665 -4.48608e-21)
(-0.010678 0.306262 -8.6667e-21)
(-0.00958492 0.307712 8.565e-21)
(-0.00851427 0.311123 -8.40621e-21)
(-0.0078149 0.314967 1.63813e-20)
(-0.00757692 0.318451 -1.57267e-20)
(-0.00781085 0.32202 1.57293e-20)
(-0.0085272 0.324584 3.72329e-21)
(-0.0096362 0.326357 -1.05559e-20)
(-0.0111868 0.328482 -1.65372e-20)
(-0.0132745 0.330388 2.72068e-20)
(-0.0158841 0.331787 -2.50321e-20)
(-0.0189465 0.330169 2.47698e-20)
(-0.0220224 0.323986 -4.50731e-20)
(-0.0246228 0.313815 -2.10577e-20)
(-0.0262656 0.302078 1.66269e-19)
(-0.0268165 0.291905 1.02312e-19)
(-0.0265686 0.284793 0)
(-0.0261126 0.282708 0)
(-0.0262497 0.285093 0)
(-0.0275909 0.288574 0)
(-0.0303179 0.290281 -3.61252e-20)
(-0.0342789 0.287054 -6.53344e-20)
(-0.0389864 0.277558 0)
(-0.0437816 0.263128 1.35846e-19)
(-0.0480362 0.24454 -1.2412e-19)
(-0.0512133 0.223481 0)
(-0.0529955 0.202177 6.40683e-20)
(-0.053304 0.181027 -1.47214e-19)
(-0.0522618 0.160367 -1.19613e-19)
(-0.0500924 0.141515 -3.85984e-20)
(-0.00412816 0.393549 -1.18256e-19)
(-0.0088318 0.37911 0)
(-0.0109723 0.373764 -4.41079e-21)
(-0.0113244 0.371807 2.18343e-20)
(-0.010828 0.372593 -1.70912e-20)
(-0.0101278 0.3754 8.20427e-21)
(-0.00961479 0.378792 -2.46844e-20)
(-0.00944471 0.381991 0)
(-0.00968229 0.385357 0)
(-0.0103799 0.387828 0)
(-0.0114851 0.389549 1.41331e-20)
(-0.0130324 0.391509 -3.87522e-20)
(-0.0150679 0.393147 9.99076e-22)
(-0.0175338 0.394183 6.4051e-20)
(-0.0203709 0.3923 -4.86826e-20)
(-0.0232612 0.386106 -4.26087e-22)
(-0.0258656 0.37608 -8.85362e-22)
(-0.0277991 0.364407 -1.04787e-19)
(-0.0289033 0.353943 -6.10308e-20)
(-0.0293488 0.346129 2.02342e-20)
(-0.0295438 0.342915 -1.98185e-20)
(-0.0301139 0.34383 3.9584e-20)
(-0.0315596 0.345737 0)
(-0.0340529 0.345968 6.77535e-22)
(-0.0375435 0.341609 1.68266e-21)
(-0.0417482 0.33142 1.40239e-21)
(-0.0462167 0.316573 2.96706e-20)
(-0.0504825 0.297649 0)
(-0.0540637 0.276071 0)
(-0.0565711 0.253816 -1.22622e-19)
(-0.0578133 0.231201 1.11153e-19)
(-0.0577712 0.208574 0)
(-0.0565159 0.187389 0)
(-0.00350064 0.455551 -2.29275e-21)
(-0.00792767 0.442187 0)
(-0.0104526 0.43693 4.43181e-21)
(-0.0114205 0.434689 -1.31664e-20)
(-0.0114918 0.43496 4.3174e-21)
(-0.0112092 0.437188 3.34762e-20)
(-0.0109574 0.440069 -1.60399e-20)
(-0.0109231 0.442868 1.60444e-20)
(-0.0112087 0.445897 -7.70883e-21)
(-0.0119012 0.448137 -1.85728e-21)
(-0.0129744 0.449682 -1.41253e-20)
(-0.0144577 0.451392 -1.1379e-20)
(-0.0163729 0.452728 9.51638e-22)
(-0.0186472 0.453426 2.62628e-20)
(-0.0212434 0.451337 4.91982e-20)
(-0.0239302 0.445206 4.6244e-20)
(-0.0264757 0.435436 0)
(-0.0285759 0.423998 8.62702e-20)
(-0.0300769 0.413464 2.05052e-20)
(-0.0310636 0.40517 -1.22518e-19)
(-0.031789 0.400993 2.0426e-20)
(-0.0327203 0.40055 2.64736e-22)
(-0.0342601 0.400969 -1.91991e-20)
(-0.0365693 0.399811 0)
(-0.0396715 0.394397 -1.02591e-19)
(-0.0434157 0.383594 1.28778e-19)
(-0.0475003 0.368472 -3.05582e-20)
(-0.0516003 0.349487 8.62174e-20)
(-0.0553187 0.32786 -8.14668e-20)
(-0.0582695 0.305321 9.92324e-20)
(-0.0602203 0.282053 -2.40084e-20)
(-0.0610597 0.258344 1.43131e-19)
(-0.0607278 0.235692 -1.19499e-19)
(-0.00299041 0.514188 1.19291e-19)
(-0.00704504 0.501905 0)
(-0.009729 0.496908 -8.89945e-21)
(-0.0111305 0.494579 2.41795e-22)
(-0.0116768 0.494486 -8.33107e-21)
(-0.0117916 0.496216 -8.22287e-21)
(-0.0118224 0.498597 -1.62707e-20)
(-0.011959 0.50096 0)
(-0.0123229 0.503587 7.66905e-21)
(-0.0130247 0.505515 -1.27441e-20)
(-0.0140561 0.506808 2.87238e-20)
(-0.0154469 0.508217 -1.84802e-20)
(-0.0172107 0.509237 0)
(-0.019276 0.509615 -1.23266e-20)
(-0.0216328 0.50736 2.51902e-20)
(-0.0241123 0.501332 -4.69786e-20)
(-0.026558 0.49187 4.4789e-20)
(-0.0287283 0.480755 -1.07812e-19)
(-0.0304845 0.470292 -2.07402e-20)
(-0.0318558 0.461692 1.03405e-19)
(-0.0329751 0.456728 0)
(-0.0341792 0.455094 -5.89864e-20)
(-0.0357894 0.454188 9.61556e-20)
(-0.0379541 0.45179 -3.76297e-20)
(-0.0407471 0.445447 6.87633e-20)
(-0.0441008 0.434135 1.62608e-21)
(-0.0478123 0.418851 0)
(-0.0516657 0.39998 -8.50359e-20)
(-0.0553474 0.378592 2.20706e-19)
(-0.0585114 0.356204 -2.70222e-20)
(-0.0609329 0.332865 -2.53176e-20)
(-0.0624574 0.308765 2.94711e-20)
(-0.0629331 0.285388 9.66201e-20)
(-0.00257807 0.569468 6.1121e-20)
(-0.00623009 0.558229 4.58007e-21)
(-0.0089155 0.55357 2.28743e-20)
(-0.0105846 0.551278 8.95535e-21)
(-0.0114892 0.550951 0)
(-0.011941 0.552275 0)
(-0.0122359 0.554206 1.61914e-20)
(-0.0125481 0.556143 -1.55622e-20)
(-0.0130025 0.55835 3.06415e-20)
(-0.0137227 0.559933 -7.92004e-21)
(-0.0147108 0.560934 -2.18079e-20)
(-0.0159994 0.56202 3.46763e-21)
(-0.0176026 0.562719 4.2158e-22)
(-0.0194593 0.562795 -1.29705e-20)
(-0.0215865 0.560398 -2.4664e-20)
(-0.0238614 0.554494 -2.32384e-20)
(-0.0261807 0.545366 9.16053e-20)
(-0.0283479 0.534623 2.22075e-20)
(-0.0302428 0.524322 -2.09631e-20)
(-0.0318588 0.51555 -4.08146e-20)
(-0.0332421 0.509964 2.08559e-20)
(-0.034629 0.507322 -5.9878e-20)
(-0.0362764 0.505272 3.95471e-20)
(-0.0383197 0.50181 0)
(-0.0408658 0.494692 -7.1282e-20)
(-0.0438972 0.482995 -6.58842e-20)
(-0.0472732 0.46766 0)
(-0.0508555 0.449031 2.95085e-20)
(-0.0543994 0.428075 -2.58767e-19)
(-0.0576101 0.406126 0)
(-0.0602966 0.383117 -2.64961e-20)
(-0.0622971 0.359144 -7.54037e-20)
(-0.0634068 0.335635 1.05757e-19)
(-0.0022416 0.621397 -1.20487e-19)
(-0.00549468 0.611148 -7.73467e-20)
(-0.00807751 0.606857 -3.62571e-20)
(-0.00987752 0.604676 -4.43411e-21)
(-0.0110237 0.60421 1.70946e-20)
(-0.0117334 0.605214 -2.49481e-20)
(-0.0122485 0.606758 1.64804e-20)
(-0.0127177 0.608304 -1.55593e-20)
(-0.0132582 0.610105 1.55635e-20)
(-0.0139974 0.611339 2.20058e-20)
(-0.0149423 0.612039 -7.43455e-21)
(-0.0161278 0.612796 2.74255e-20)
(-0.0175727 0.61318 -5.27342e-20)
(-0.0192295 0.612968 9.322e-22)
(-0.0211401 0.610447 2.54974e-20)
(-0.023216 0.604681 0)
(-0.0253915 0.595899 -4.46177e-20)
(-0.0275021 0.585556 0)
(-0.0294443 0.575481 0)
(-0.03119 0.566644 4.23805e-20)
(-0.0327248 0.560584 -2.09804e-20)
(-0.0342118 0.557105 4.0647e-20)
(-0.0358586 0.554096 0)
(-0.037789 0.549746 -3.82538e-20)
(-0.0401302 0.542013 3.56686e-20)
(-0.0428939 0.530064 1.03033e-19)
(-0.0459762 0.514794 0)
(-0.0492909 0.496519 -1.5457e-19)
(-0.0526442 0.476133 2.65595e-20)
(-0.0557909 0.45482 -1.17069e-19)
(-0.058583 0.432423 1.40273e-19)
(-0.0608726 0.408951 -5.43403e-20)
(-0.0624323 0.385763 3.05906e-20)
(-0.00196191 0.66998 1.23282e-19)
(-0.00483459 0.660668 7.47242e-20)
(-0.00724924 0.656744 0)
(-0.00907433 0.654711 4.41678e-21)
(-0.0103572 0.654172 -8.91515e-23)
(-0.0112418 0.654927 -2.52651e-20)
(-0.0119203 0.656144 0)
(-0.0125123 0.657345 0)
(-0.0131214 0.658769 0)
(-0.0138719 0.659671 7.18958e-21)
(-0.0147711 0.660078 2.09956e-20)
(-0.0158552 0.660516 -2.84003e-20)
(-0.0171482 0.660597 -3.17584e-20)
(-0.0186166 0.660114 5.57406e-20)
(-0.0203243 0.657485 -3.95147e-22)
(-0.0222078 0.651864 7.20851e-20)
(-0.0242283 0.643436 -4.55146e-20)
(-0.0262438 0.633512 2.26269e-20)
(-0.0281647 0.623712 0)
(-0.0299497 0.614898 -4.21733e-20)
(-0.0315447 0.608489 2.08742e-20)
(-0.0330607 0.604331 -2.03869e-20)
(-0.0346694 0.600531 5.93073e-20)
(-0.0364845 0.595463 -8.19489e-22)
(-0.0386455 0.58727 -3.58106e-20)
(-0.0411797 0.575206 -6.74749e-20)
(-0.0440041 0.560116 3.33904e-20)
(-0.0470649 0.542301 1.24142e-19)
(-0.0502034 0.522595 2.43883e-19)
(-0.0532164 0.50206 8.79152e-20)
(-0.0559984 0.480471 -8.41096e-20)
(-0.0584255 0.457769 -2.8136e-20)
(-0.060267 0.435238 5.85529e-20)
(-0.00172355 0.715222 -6.1732e-20)
(-0.00423899 0.706795 7.53104e-20)
(-0.00644594 0.703226 -8.99979e-21)
(-0.00821731 0.701353 2.49997e-21)
(-0.00954878 0.700783 8.74436e-21)
(-0.0105301 0.701342 3.35133e-20)
(-0.0113113 0.702285 1.60219e-20)
(-0.0119841 0.703186 -3.16035e-20)
(-0.0126354 0.70427 1.81693e-22)
(-0.0133822 0.704865 -7.2443e-21)
(-0.0142293 0.704999 -6.51564e-21)
(-0.0152124 0.705135 5.6056e-20)
(-0.0163601 0.704931 -1.74046e-20)
(-0.0176516 0.704193 -2.91846e-20)
(-0.0191684 0.701471 -2.4267e-20)
(-0.0208659 0.696004 -2.36301e-20)
(-0.0227247 0.687939 -4.6057e-20)
(-0.0246177 0.678448 0)
(-0.0264672 0.66896 0)
(-0.0282237 0.660241 0)
(-0.0298075 0.653593 0)
(-0.0312946 0.648895 0)
(-0.032831 0.644459 -1.99497e-20)
(-0.0345224 0.638826 3.90404e-20)
(-0.0365152 0.630319 0)
(-0.0388437 0.61827 3.46646e-20)
(-0.0414359 0.603472 -3.39602e-20)
(-0.0442574 0.586215 0)
(-0.0471714 0.567285 -9.25638e-20)
(-0.0500081 0.547635 -9.25051e-20)
(-0.0526997 0.526995 0)
(-0.055148 0.505256 -8.77755e-20)
(-0.0571309 0.483625 -2.58418e-20)
(-0.00151498 0.757123 1.95748e-21)
(-0.00369577 0.749536 -1.99347e-21)
(-0.0056723 0.746303 0)
(-0.00733281 0.744589 -3.3345e-21)
(-0.00864207 0.74401 8.79073e-21)
(-0.00965131 0.74441 -8.23126e-21)
(-0.0104768 0.745123 -1.60402e-20)
(-0.0111855 0.745764 3.16384e-20)
(-0.0118478 0.746543 1.48746e-20)
(-0.012571 0.746862 -1.51496e-20)
(-0.0133557 0.746744 -1.44393e-20)
(-0.0142359 0.746602 -1.40936e-20)
(-0.0152428 0.746133 -6.79098e-21)
(-0.0163666 0.745159 -8.31138e-22)
(-0.0177026 0.742359 0)
(-0.0192199 0.737055 0)
(-0.0209129 0.729358 0)
(-0.0226647 0.720314 0)
(-0.0244071 0.711172 -4.43485e-20)
(-0.0260854 0.702611 0)
(-0.0276045 0.695818 0)
(-0.0290176 0.690702 2.10123e-20)
(-0.0304526 0.685765 -4.00221e-20)
(-0.0320094 0.679707 -3.8617e-20)
(-0.0338372 0.671019 0)
(-0.0359729 0.659104 -3.515e-20)
(-0.0383492 0.644703 -3.4326e-20)
(-0.0409423 0.628095 0)
(-0.0436282 0.610023 0)
(-0.0462628 0.591343 6.19015e-20)
(-0.048809 0.571755 0)
(-0.0511924 0.551117 1.17308e-19)
(-0.0532051 0.530561 -2.36956e-19)
(-0.00132797 0.795685 -1.9637e-21)
(-0.00319384 0.788897 -1.48305e-19)
(-0.00492755 0.78598 0)
(-0.00643655 0.784416 1.11195e-21)
(-0.00766822 0.783837 -2.60529e-20)
(-0.00864737 0.784103 -2.53492e-20)
(-0.00946434 0.784614 1.60608e-20)
(-0.0101657 0.785028 -4.49562e-22)
(-0.0108064 0.785534 -1.56187e-20)
(-0.0114835 0.785605 -1.49635e-20)
(-0.0121926 0.78526 -1.4549e-20)
(-0.012965 0.784863 2.8177e-20)
(-0.0138332 0.784148 0)
(-0.0147958 0.782959 -2.61422e-20)
(-0.0159585 0.780097 8.45523e-22)
(-0.0173001 0.774965 2.49524e-20)
(-0.018825 0.767645 -4.72467e-20)
(-0.020423 0.759059 0)
(-0.0220336 0.750294 4.41921e-20)
(-0.0235985 0.741945 0)
(-0.0250142 0.73509 0)
(-0.0263198 0.729663 -2.09197e-20)
(-0.0276303 0.724346 -4.03405e-20)
(-0.0290413 0.717986 7.9173e-20)
(-0.0307026 0.709235 3.71165e-20)
(-0.0326504 0.697562 -1.08708e-19)
(-0.0348194 0.683654 6.87029e-20)
(-0.0371905 0.667777 0)
(-0.0396463 0.650632 9.79578e-20)
(-0.0420623 0.632988 3.2211e-20)
(-0.0444255 0.614527 0)
(-0.0466817 0.595088 3.07119e-20)
(-0.0486391 0.575728 1.50281e-19)
(-0.00115626 0.830909 -1.96926e-21)
(-0.00272353 0.824884 7.76335e-20)
(-0.00420833 0.822262 -1.84168e-20)
(-0.00553734 0.820834 -8.80284e-21)
(-0.00664911 0.820257 2.60673e-20)
(-0.00755094 0.820402 2.19118e-22)
(-0.00831386 0.820732 -4.15614e-23)
(-0.00896813 0.820941 1.56852e-20)
(-0.00955573 0.821201 0)
(-0.0101636 0.821046 1.49193e-20)
(-0.0107822 0.820496 2.90837e-20)
(-0.01144 0.819864 -2.82488e-20)
(-0.0121689 0.818926 -1.37565e-20)
(-0.0129745 0.817538 2.37291e-20)
(-0.0139692 0.814631 -3.68056e-22)
(-0.0151386 0.809681 0)
(-0.0164941 0.802744 2.37658e-20)
(-0.01793 0.794629 2.33116e-20)
(-0.0193922 0.786267 2.20593e-20)
(-0.0208196 0.778179 4.34499e-20)
(-0.0221051 0.771336 -2.18657e-20)
(-0.0232792 0.765696 -4.17729e-20)
(-0.024448 0.760105 1.06056e-21)
(-0.0257035 0.753554 4.02402e-20)
(-0.0271943 0.744843 3.74611e-20)
(-0.0289547 0.733509 3.54128e-20)
(-0.0309194 0.720177 7.04835e-20)
(-0.0330707 0.705101 -6.79341e-20)
(-0.0352938 0.68894 -6.57145e-20)
(-0.0374796 0.672381 3.31248e-20)
(-0.0396335 0.655103 -4.26988e-22)
(-0.0417172 0.636928 -9.2686e-20)
(-0.0435551 0.618845 -3.02547e-20)
(-0.000995419 0.862794 0)
(-0.00227708 0.8575 4.64211e-21)
(-0.0035105 0.855153 2.27563e-20)
(-0.00463979 0.853845 -9.08849e-21)
(-0.00559989 0.853266 8.81906e-21)
(-0.0063869 0.853295 -8.04516e-21)
(-0.0070578 0.853456 4.91902e-20)
(-0.0076304 0.853476 -1.55355e-20)
(-0.0081361 0.853507 -7.50798e-23)
(-0.00865244 0.853145 -1.5224e-20)
(-0.00916553 0.852406 -2.86649e-20)
(-0.00970048 0.851559 2.86702e-20)
(-0.0102878 0.850414 1.37218e-20)
(-0.0109383 0.848845 -1.96464e-20)
(-0.0117685 0.845907 -1.19668e-20)
(-0.0127682 0.841148 2.52114e-20)
(-0.0139537 0.834603 2.35172e-20)
(-0.0152224 0.826969 -4.62674e-20)
(-0.0165256 0.819035 -2.23375e-20)
(-0.0177998 0.811254 -4.38512e-20)
(-0.0189374 0.80449 0)
(-0.019964 0.798721 0)
(-0.0209791 0.792953 4.08584e-20)
(-0.0220717 0.786308 -4.04845e-20)
(-0.0233878 0.777731 0)
(-0.0249584 0.766817 -3.63009e-20)
(-0.0267182 0.754133 -3.46742e-20)
(-0.0286489 0.739916 3.40028e-20)
(-0.0306361 0.724783 1.01334e-19)
(-0.0325828 0.709346 -3.28557e-20)
(-0.0345082 0.693283 -6.44304e-20)
(-0.0363864 0.676415 8.21667e-24)
(-0.0380576 0.659657 6.2009e-20)
(-0.000842492 0.891342 0)
(-0.00184857 0.886746 -4.64542e-21)
(-0.00283006 0.884658 1.40536e-20)
(-0.00374605 0.883454 2.24061e-20)
(-0.00453095 0.882864 -2.61381e-20)
(-0.00517398 0.882776 5.03495e-20)
(-0.0057221 0.882772 1.61507e-20)
(-0.00618391 0.882612 -4.74015e-20)
(-0.00658255 0.882426 3.13158e-20)
(-0.00698718 0.881869 1.52464e-20)
(-0.00738033 0.880952 -1.45696e-20)
(-0.00778395 0.879904 4.21339e-20)
(-0.00822654 0.878567 -2.79968e-20)
(-0.00872261 0.876832 3.38042e-21)
(-0.00939051 0.873875 -1.29159e-20)
(-0.0102223 0.869314 2.45755e-20)
(-0.0112379 0.863167 -4.7988e-20)
(-0.0123364 0.856024 2.35766e-20)
(-0.0134743 0.848543 6.73688e-20)
(-0.0145858 0.841108 -4.43283e-20)
(-0.015565 0.834484 2.20798e-20)
(-0.0164344 0.828666 0)
(-0.0172884 0.822809 4.10543e-20)
(-0.0182132 0.816156 -4.06873e-20)
(-0.0193505 0.807795 0)
(-0.0207283 0.797371 0)
(-0.0222808 0.785394 0)
(-0.0239881 0.772083 1.03796e-19)
(-0.0257354 0.758009 -6.73956e-20)
(-0.0274357 0.743714 -6.66871e-20)
(-0.0291184 0.728885 3.28939e-20)
(-0.0307671 0.713343 6.43694e-20)
(-0.0322364 0.697931 3.26759e-20)
(-0.00069513 0.916552 0)
(-0.00143331 0.912627 -3.31463e-20)
(-0.00216338 0.910779 -4.64666e-21)
(-0.00285685 0.909664 -4.47525e-21)
(-0.00344938 0.909052 -2.59584e-20)
(-0.00392619 0.908842 -2.51285e-20)
(-0.00432724 0.908673 -3.2687e-20)
(-0.00465453 0.908334 -1.61673e-20)
(-0.004925 0.907937 5.15246e-23)
(-0.00520052 0.907189 1.52656e-20)
(-0.00546091 0.906101 2.8836e-20)
(-0.00572533 0.904862 -2.8846e-20)
(-0.00601978 0.903344 -4.11304e-20)
(-0.00636161 0.901453 2.05844e-20)
(-0.00686886 0.898488 -3.86728e-20)
(-0.00753459 0.894132 5.05542e-20)
(-0.0083807 0.888386 -2.37685e-20)
(-0.00930814 0.881742 2.36882e-20)
(-0.0102777 0.874734 -4.55605e-20)
(-0.0112216 0.867684 2.19776e-20)
(-0.0120368 0.861257 -2.21598e-20)
(-0.0127443 0.855463 0)
(-0.0134336 0.849595 0)
(-0.0141878 0.843015 -4.04777e-20)
(-0.0151438 0.834941 3.87747e-20)
(-0.0163256 0.825068 -3.68204e-20)
(-0.0176678 0.813846 3.63406e-20)
(-0.0191482 0.801475 -3.48481e-20)
(-0.0206513 0.788478 -6.89035e-20)
(-0.0220993 0.775331 -2.2057e-22)
(-0.0235287 0.761736 -6.58625e-20)
(-0.02493 0.747521 6.56597e-20)
(-0.0261725 0.733453 -1.2901e-19)
(-0.000551723 0.938424 0)
(-0.00102779 0.935142 7.55292e-20)
(-0.00150744 0.93352 2.42456e-23)
(-0.00197222 0.932477 0)
(-0.00236 0.931831 1.73646e-20)
(-0.00265398 0.931492 0)
(-0.00288927 0.931151 -3.27889e-20)
(-0.00306334 0.93063 3.17999e-20)
(-0.00318861 0.930021 1.53251e-20)
(-0.00332076 0.929084 -3.01266e-20)
(-0.00343776 0.927825 4.41705e-20)
(-0.00355638 0.926401 0)
(-0.00369989 0.924708 1.38282e-20)
(-0.00388783 0.922671 2.65697e-20)
(-0.00423618 0.919705 -5.22783e-20)
(-0.00473785 0.915556 -2.43755e-20)
(-0.00541598 0.910213 2.45484e-20)
(-0.00617289 0.904074 2.31553e-20)
(-0.0069736 0.897558 2.23513e-20)
(-0.0077483 0.890928 -2.20498e-20)
(-0.00839796 0.88475 4.42276e-20)
(-0.00894253 0.879048 -4.24506e-20)
(-0.00946645 0.873244 4.23568e-20)
(-0.0100496 0.86681 4.03645e-20)
(-0.0108228 0.859085 2.1507e-22)
(-0.0118063 0.849814 -3.70085e-20)
(-0.0129352 0.839384 1.09189e-19)
(-0.0141852 0.827975 7.05361e-20)
(-0.0154405 0.816062 0)
(-0.0166314 0.804057 6.84019e-20)
(-0.0177996 0.791683 9.97624e-20)
(-0.0189408 0.778777 -6.54956e-20)
(-0.019938 0.766033 5.55512e-22)
(-0.000411247 0.956958 -1.98738e-21)
(-0.000629485 0.954294 -7.31302e-20)
(-0.000859833 0.952881 -2.75105e-20)
(-0.00109186 0.951895 9.10562e-21)
(-0.00126613 0.951203 0)
(-0.00136514 0.950724 0)
(-0.00142071 0.950203 3.27421e-20)
(-0.00142733 0.949493 1.5708e-20)
(-0.00139432 0.948667 -6.19323e-20)
(-0.00137209 0.947535 1.52916e-20)
(-0.00133756 0.946103 -2.92795e-20)
(-0.00130556 0.944493 0)
(-0.00129659 0.942628 2.7774e-20)
(-0.00133176 0.940449 0)
(-0.00152365 0.937488 -4.07548e-23)
(-0.00186414 0.933547 0)
(-0.00237681 0.928607 2.46644e-20)
(-0.00296534 0.922975 2.38687e-20)
(-0.00359877 0.916966 0)
(-0.00420544 0.910788 0)
(-0.00469092 0.904911 -2.19515e-20)
(-0.00507414 0.899365 0)
(-0.00543441 0.893694 4.13861e-20)
(-0.00584766 0.887471 -4.284e-22)
(-0.00643809 0.880153 -3.88343e-20)
(-0.00722178 0.871527 -3.79949e-20)
(-0.00813518 0.861917 -1.82307e-19)
(-0.00915186 0.851482 -3.48814e-20)
(-0.0101563 0.840647 -3.47649e-20)
(-0.0110869 0.829763 3.43243e-20)
(-0.0119887 0.818582 6.69299e-20)
(-0.0128612 0.806953 -6.63891e-20)
(-0.0136012 0.795493 5.21583e-22)
(-0.000272805 0.972153 0)
(-0.000236388 0.970082 3.77399e-20)
(-0.000218594 0.968865 -2.75091e-20)
(-0.000215288 0.967921 9.1023e-21)
(-0.000170027 0.967169 -8.81746e-21)
(-6.54699e-05 0.966539 -2.56777e-20)
(6.87353e-05 0.965827 -1.66301e-20)
(0.000239866 0.964916 0)
(0.000440606 0.963865 4.62703e-20)
(0.000625026 0.96253 -1.26107e-24)
(0.000816508 0.960915 -1.44753e-20)
(0.00100179 0.959117 2.85519e-20)
(0.00116314 0.957079 -5.51461e-20)
(0.00127826 0.95476 4.05556e-20)
(0.00123918 0.951804 1.23423e-20)
(0.00105575 0.948068 -2.56566e-20)
(0.000704617 0.943527 -7.33389e-20)
(0.000280691 0.938403 2.337e-20)
(-0.000188912 0.932917 -2.2635e-20)
(-0.000630822 0.927221 2.27121e-20)
(-0.000955679 0.92169 2.17452e-20)
(-0.00118126 0.916361 -2.18216e-20)
(-0.00138132 0.910889 -4.1414e-20)
(-0.00162732 0.90494 -3.95253e-20)
(-0.00203595 0.89808 3.94999e-20)
(-0.00261941 0.890133 7.51053e-20)
(-0.0033159 0.881363 7.29589e-20)
(-0.00409729 0.871904 -1.06385e-19)
(-0.00484915 0.86213 3.52576e-20)
(-0.00551767 0.852338 -6.90992e-20)
(-0.00614999 0.842308 -1.35383e-19)
(-0.00674848 0.831909 0)
(-0.00722388 0.821677 0)
(-0.000135762 0.98401 0)
(0.000153023 0.982508 -3.76889e-20)
(0.00041787 0.981471 1.84202e-20)
(0.000658045 0.980555 -8.96111e-21)
(0.000926804 0.97973 1.73775e-20)
(0.00124072 0.978936 1.71002e-20)
(0.00157151 0.978019 1.66235e-20)
(0.00192732 0.976894 3.18522e-20)
(0.00230195 0.975606 -6.19541e-20)
(0.00265328 0.974055 -3.01388e-20)
(0.0030044 0.972247 2.93249e-20)
(0.00334329 0.970253 2.32181e-23)
(0.00365488 0.968038 -2.78001e-20)
(0.00391608 0.965578 -1.31588e-20)
(0.0040245 0.962626 2.66497e-20)
(0.00399237 0.959091 -2.53726e-20)
(0.00379713 0.954942 1.21735e-19)
(0.00353228 0.950325 -4.7936e-20)
(0.00322124 0.945371 -2.32938e-20)
(0.00293899 0.940184 0)
(0.00276944 0.935044 -4.3497e-20)
(0.00269624 0.929992 4.36378e-20)
(0.00265168 0.924781 0)
(0.00256927 0.919164 -5.15444e-22)
(0.00234046 0.912808 -1.17172e-19)
(0.00195675 0.90557 3.81079e-20)
(0.00147762 0.897651 0)
(0.000932482 0.889163 0)
(0.00043375 0.880423 7.04809e-20)
(2.74382e-05 0.87168 3.44496e-20)
(-0.000334666 0.862749 -3.42047e-20)
(-0.000657072 0.853518 0)
(-0.000864472 0.844445 -9.73968e-20)
(2.99865e-07 0.992529 0)
(0.000539889 0.991571 4.69401e-21)
(0.00105086 0.990701 4.39854e-21)
(0.00152872 0.989798 -9.07761e-21)
(0.0020234 0.988886 1.73567e-20)
(0.00255026 0.987914 -3.36823e-20)
(0.00308177 0.986778 3.27317e-20)
(0.00362627 0.985423 -3.18356e-20)
(0.004178 0.983884 1.17435e-23)
(0.00469807 0.982102 0)
(0.0052088 0.980086 -3.97017e-22)
(0.00569913 0.977886 -1.14196e-19)
(0.00615658 0.975488 2.8558e-20)
(0.00655756 0.972882 5.41607e-20)
(0.00680618 0.969931 -2.66766e-20)
(0.00691758 0.966588 2.53826e-20)
(0.0068706 0.962824 -4.88925e-20)
(0.00675734 0.958708 -2.33992e-20)
(0.00659778 0.954297 6.93426e-20)
(0.00646841 0.949644 4.49165e-20)
(0.00644739 0.944938 0)
(0.00652016 0.940219 -2.1518e-20)
(0.00662546 0.935329 6.22829e-20)
(0.00670225 0.9301 4.00219e-20)
(0.00665059 0.924289 7.80379e-20)
(0.00646541 0.917783 1.12688e-19)
(0.00620328 0.910722 -3.70416e-20)
(0.00589435 0.90319 0)
(0.00564804 0.89545 -7.05878e-20)
(0.00550253 0.887704 0)
(0.00540939 0.879809 3.43859e-20)
(0.00536239 0.871673 6.71296e-20)
(0.00542241 0.863675 6.54668e-20)
(0.000135819 0.997709 -1.98869e-21)
(0.000925239 0.997273 7.29672e-20)
(0.00168155 0.996554 2.28968e-20)
(0.00239738 0.995651 -1.22421e-22)
(0.0031192 0.994637 -1.73551e-20)
(0.00386081 0.993473 1.70836e-20)
(0.00459498 0.992102 -1.6134e-20)
(0.00532969 0.990501 0)
(0.00605906 0.988694 1.5693e-20)
(0.006747 0.986663 -1.48344e-20)
(0.00741466 0.984423 2.06332e-23)
(0.0080517 0.982005 2.8542e-20)
(0.0086482 0.979413 -2.77806e-20)
(0.00918032 0.976655 2.67055e-20)
(0.00955955 0.9737 -5.26598e-20)
(0.00980441 0.97054 5.08567e-20)
(0.00989582 0.96715 -4.93538e-20)
(0.00992453 0.96353 4.7478e-20)
(0.00990748 0.959667 -9.20612e-20)
(0.00992257 0.955572 -2.27286e-20)
(0.010042 0.951341 -6.62315e-20)
(0.0102534 0.94701 8.53854e-20)
(0.0105023 0.942499 -2.19522e-20)
(0.0107335 0.93771 -8.14671e-20)
(0.0108559 0.932482 -3.90035e-20)
(0.0108675 0.926728 -7.54125e-20)
(0.0108214 0.920525 3.69424e-20)
(0.0107477 0.913929 1.77894e-22)
(0.010752 0.907147 3.51705e-20)
(0.0108644 0.900338 0)
(0.0110371 0.893404 -3.40449e-20)
(0.0112626 0.88628 -1.88272e-22)
(0.0115872 0.879265 0)
(0.00027116 0.99955 -6.46479e-20)
(0.00130998 0.999613 -7.50736e-20)
(0.00231102 0.999032 -9.17978e-21)
(0.00326475 0.998113 0)
(0.00421401 0.996983 0)
(0.00517072 0.995613 0)
(0.0061076 0.99399 0)
(0.00703183 0.992124 0)
(0.00793702 0.990032 3.0863e-20)
(0.00878944 0.987734 3.01169e-20)
(0.00960874 0.98525 2.96825e-20)
(0.0103852 0.9826 5.74132e-20)
(0.0111114 0.979803 2.77881e-20)
(0.0117635 0.976886 0)
(0.0122612 0.973918 0)
(0.0126269 0.970931 0)
(0.0128443 0.967902 2.45356e-20)
(0.013003 0.964769 -7.0968e-20)
(0.0131175 0.961462 6.93982e-20)
(0.013267 0.957946 0)
(0.0135177 0.954229 4.44478e-20)
(0.0138597 0.950339 2.19877e-20)
(0.0142456 0.946264 2.08147e-20)
(0.0146261 0.941966 4.37583e-22)
(0.0149193 0.937358 5.43792e-22)
(0.0151257 0.93237 3.72328e-20)
(0.0152942 0.927019 -1.8354e-19)
(0.0154543 0.921334 3.60269e-20)
(0.0157063 0.915459 0)
(0.0160727 0.90952 3.45228e-20)
(0.0165064 0.903467 -1.91092e-22)
(0.0169989 0.89726 -6.69303e-20)
(0.0175818 0.891124 3.24987e-20)
(0.000406608 0.998052 6.26842e-20)
(0.00169492 0.998591 2.51568e-21)
(0.00294032 0.998133 0)
(0.00413162 0.997186 -8.78716e-21)
(0.00530784 0.995925 8.76492e-21)
(0.00647879 0.994333 0)
(0.00761682 0.992441 -3.25586e-20)
(0.00872796 0.990291 0)
(0.00980493 0.987895 -3.08762e-20)
(0.010816 0.985309 0)
(0.0117792 0.982562 -4.20996e-22)
(0.0126852 0.979664 -8.58531e-20)
(0.0135289 0.97665 0)
(0.0142872 0.973565 0)
(0.0148885 0.970576 0)
(0.0153596 0.96775 -1.27147e-20)
(0.015688 0.965069 -3.16321e-22)
(0.0159623 0.962414 -2.40959e-20)
(0.0161951 0.959666 0)
(0.0164673 0.956751 -2.21191e-20)
(0.0168389 0.953586 -2.16435e-20)
(0.0173028 0.95019 -2.13403e-20)
(0.0178188 0.946607 -6.22792e-20)
(0.0183438 0.942848 -5.54584e-22)
(0.0188048 0.938893 -4.28095e-22)
(0.0192041 0.934683 -3.74746e-20)
(0.0195856 0.930176 3.71119e-20)
(0.0199776 0.925369 1.07488e-19)
(0.0204741 0.920346 -1.05844e-19)
(0.0210894 0.915203 1.04112e-19)
(0.0217782 0.909942 -6.8133e-20)
(0.0225308 0.90455 6.68427e-20)
(0.0233641 0.89918 -3.23139e-20)
(0.000542716 0.993216 0)
(0.00208108 0.994208 3.74376e-20)
(0.00357058 0.993858 0)
(0.00499886 0.992868 0)
(0.00640091 0.991462 2.59175e-20)
(0.00778416 0.989632 2.53757e-20)
(0.00912031 0.987454 3.26488e-20)
(0.010414 0.985002 -1.60433e-20)
(0.0116567 0.982282 0)
(0.0128184 0.979387 -1.48006e-20)
(0.0139152 0.976356 1.48094e-20)
(0.0149382 0.973194 2.84815e-20)
(0.0158848 0.969949 0)
(0.0167325 0.966687 -2.69729e-20)
(0.0174195 0.963668 -2.59769e-20)
(0.0179777 0.96099 5.12535e-20)
(0.0183989 0.958642 2.45851e-20)
(0.0187716 0.956457 -2.37333e-20)
(0.0191073 0.954271 0)
(0.0194888 0.951976 0)
(0.0199699 0.949402 0)
(0.0205466 0.946551 8.46415e-20)
(0.0211859 0.943514 -4.17903e-20)
(0.0218508 0.940344 3.9581e-20)
(0.0224768 0.937072 -3.91736e-20)
(0.0230676 0.933649 1.91757e-22)
(0.023661 0.929973 0)
(0.024283 0.926008 0)
(0.0250203 0.921779 3.53458e-20)
(0.0258791 0.917351 -3.47756e-20)
(0.0268161 0.912786 0)
(0.0278203 0.9081 -1.65207e-20)
(0.0288941 0.903378 0)
(0.000679813 0.985039 -1.9765e-21)
(0.00246929 0.986463 3.95414e-20)
(0.00420285 0.986206 8.97819e-21)
(0.00586731 0.98516 -2.66652e-20)